CRYSTAL
PRIMVEC
     10.0000000000       0.0000000000       0.0000000000
      0.0000000000      10.0000000000       0.0000000000
      0.0000000000       0.0000000000      10.0000000000
PRIMCOORD
       2        1
H        5.0000000000       5.0000000000       5.0000000000
H        6.5000000000       5.0000000000       5.0000000000
BEGIN_BLOCK_DATAGRID_3D
made_by_ffr
DATAGRID_3D_UNKNOWN
      51       51       51
      0.0000000000       0.0000000000       0.0000000000
     10.0000000000       0.0000000000       0.0000000000
      0.0000000000      10.0000000000       0.0000000000
      0.0000000000       0.0000000000      10.0000000000
      0.1559837690
      0.1569390986
      0.1576095804
      0.1579852954
      0.1580607194
      0.1578347313
      0.1573106672
      0.1564962543
      0.1554035370
      0.1540487335
      0.1524520332
      0.1506373733
      0.1486321034
      0.1464666817
      0.1441742059
      0.1417900341
      0.1393511852
      0.1368959027
      0.1344629369
      0.1320910841
      0.1298183715
      0.1276816292
      0.1257155929
      0.1239526103
      0.1224214812
      0.1211475031
      0.1201532297
      0.1194539625
      0.1190614684
      0.1189827066
      0.1192187633
      0.1197659387
      0.1206142956
      0.1217507954
      0.1231564628
      0.1248067906
      0.1266752122
      0.1287307584
      0.1309400123
      0.1332669572
      0.1356742093
      0.1381231724
      0.1405750836
      0.1429912943
      0.1453341689
      0.1475673944
      0.1496567340
      0.1515703107
      0.1532792128
      0.1547577212
      0.1559837690
      0.1558004085
      0.1567592872
      0.1574322364
      0.1578093431
      0.1578850396
      0.1576582226
      0.1571322234
      0.1563147992
      0.1552180280
      0.1538581713
      0.1522554914
      0.1504339821
      0.1484211060
      0.1462473912
      0.1439460886
      0.1415526353
      0.1391042437
      0.1366392379
      0.1341965987
      0.1318151915
      0.1295333103
      0.1273878173
      0.1254137625
      0.1236434329
      0.1221063387
      0.1208280801
      0.1198286239
      0.1191260107
      0.1187319762
      0.1186527681
      0.1188899561
      0.1194392875
      0.1202923019
      0.1214335438
      0.1228439657
      0.1245012557
      0.1263772460
      0.1284412930
      0.1306594506
      0.1329958388
      0.1354126731
      0.1378713983
      0.1403329233
      0.1427585971
      0.1451105131
      0.1473523393
      0.1494496195
      0.1513704557
      0.1530857650
      0.1545698135
      0.1558004085
      0.1552528767
      0.1562223302
      0.1569026947
      0.1572839369
      0.1573604695
      0.1571311587
      0.1565993787
      0.1557729450
      0.1546640420
      0.1532890799
      0.1516684927
      0.1498265160
      0.1477908509
      0.1455923606
      0.1432645980
      0.1408434257
      0.1383664097
      0.1358723789
      0.1334006971
      0.1309907955
      0.1286813427
      0.1265098074
      0.1245115438
      0.1227194887
      0.1211629776
      0.1198677868
      0.1188568982
      0.1181459146
      0.1177468332
      0.1176667485
      0.1179067690
      0.1184631212
      0.1193256754
      0.1204811351
      0.1219101585
      0.1235877754
      0.1254869188
      0.1275760501
      0.1298211501
      0.1321855693
      0.1346312843
      0.1371190574
      0.1396095019
      0.1420633671
      0.1444424513
      0.1467099144
      0.1488310399
      0.1507735197
      0.1525080644
      0.1540086294
      0.1552528767
      0.1543487115
      0.1553357157
      0.1560283437
      0.1564164564
      0.1564943603
      0.1562609273
      0.1557195637
      0.1548782026
      0.1537491996
      0.1523491974
      0.1506989444
      0.1488230269
      0.1467496068
      0.1445100162
      0.1421384136
      0.1396712381
      0.1371467933
      0.1346045674
      0.1320847667
      0.1296275189
      0.1272724006
      0.1250575443
      0.1230192390
      0.1211909406
      0.1196032477
      0.1182827223
      0.1172500999
      0.1165241087
      0.1161169408
      0.1160350908
      0.1162801881
      0.1168478156
      0.1177291776
      0.1189082275
      0.1203651872
      0.1220768936
      0.1240141328
      0.1261451396
      0.1284347535
      0.1308458418
      0.1333393360
      0.1358754086
      0.1384137194
      0.1409144227
      0.1433384805
      0.1456485145
      0.1478091112
      0.1497875179
      0.1515538984
      0.1530818739
      0.1543487115
      0.1531004728
      0.1541118049
      0.1548214698
      0.1552190980
      0.1552989173
      0.1550597561
      0.1545051004
      0.1536430258
      0.1524861278
      0.1510513817
      0.1493599418
      0.1474369233
      0.1453110643
      0.1430144243
      0.1405819029
      0.1380508561
      0.1354604716
      0.1328513159
      0.1302645762
      0.1277415712
      0.1253228786
      0.1230478707
      0.1209537452
      0.1190751961
      0.1174431584
      0.1160848377
      0.1150244984
      0.1142786414
      0.1138599513
      0.1137759289
      0.1140277485
      0.1146114163
      0.1155162267
      0.1167281136
      0.1182266413
      0.1199854526
      0.1219759886
      0.1241650108
      0.1265167041
      0.1289925326
      0.1315525676
      0.1341556637
      0.1367605790
      0.1393262753
      0.1418128720
      0.1441819664
      0.1463974235
      0.1484256602
      0.1502362724
      0.1518022553
      0.1531004728
      0.1515255495
      0.1525678066
      0.1532990882
      0.1537088172
      0.1537910562
      0.1535446294
      0.1529730882
      0.1520847067
      0.1508923790
      0.1494134876
      0.1476697267
      0.1456868355
      0.1434943404
      0.1411251442
      0.1386151809
      0.1360028544
      0.1333286114
      0.1306342298
      0.1279623311
      0.1253555334
      0.1228559482
      0.1205042209
      0.1183390954
      0.1163963445
      0.1147087281
      0.1133047180
      0.1122065715
      0.1114343891
      0.1110012708
      0.1109142000
      0.1111749265
      0.1117787042
      0.1127160748
      0.1139698110
      0.1155186826
      0.1173378412
      0.1193959926
      0.1216591480
      0.1240897400
      0.1266481556
      0.1292927871
      0.1319812957
      0.1346708770
      0.1373193338
      0.1398854035
      0.1423296557
      0.1446148014
      0.1467064165
      0.1485731945
      0.1501875002
      0.1515255495
      0.1496461111
      0.1507255487
      0.1514828553
      0.1519071233
      0.1519922856
      0.1517371106
      0.1511452624
      0.1502252320
      0.1489902728
      0.1474582645
      0.1456515173
      0.1435965597
      0.1413238004
      0.1388672294
      0.1362639258
      0.1335536676
      0.1307782785
      0.1279811564
      0.1252064647
      0.1224986105
      0.1199013000
      0.1174570306
      0.1152060303
      0.1131858867
      0.1114301682
      0.1099684368
      0.1088270856
      0.1080240873
      0.1075732631
      0.1074827878
      0.1077539430
      0.1083823733
      0.1093564141
      0.1106607385
      0.1122731039
      0.1141648553
      0.1163049801
      0.1186574377
      0.1211834607
      0.1238414122
      0.1265882402
      0.1293796737
      0.1321714402
      0.1349195855
      0.1375814971
      0.1401162349
      0.1424853657
      0.1446532464
      0.1465876754
      0.1482601028
      0.1496461111
      0.1474888156
      0.1486113619
      0.1493987992
      0.1498399278
      0.1499284636
      0.1496631631
      0.1490477835
      0.1480910838
      0.1468067245
      0.1452131427
      0.1433333836
      0.1411948374
      0.1388289895
      0.1362710038
      0.1335593790
      0.1307353638
      0.1278425175
      0.1249259528
      0.1220318174
      0.1192063749
      0.1164954557
      0.1139433987
      0.1115925637
      0.1094821394
      0.1076480819
      0.1061216881
      0.1049274490
      0.1040875157
      0.1036163322
      0.1035216021
      0.1038052562
      0.1044620578
      0.1054815764
      0.1068448200
      0.1085284089
      0.1105050169
      0.1127402661
      0.1151968884
      0.1178337666
      0.1206076403
      0.1234731714
      0.1263843423
      0.1292947444
      0.1321587531
      0.1349318693
      0.1375716869
      0.1400382042
      0.1422945884
      0.1443074175
      0.1460472558
      0.1474888156
      0.1450846657
      0.1462557409
      0.1470771336
      0.1475372306
      0.1476295786
      0.1473528670
      0.1467109932
      0.1457129930
      0.1443729829
      0.1427100321
      0.1407479746
      0.1385152078
      0.1360443559
      0.1333719791
      0.1305380661
      0.1275856413
      0.1245600724
      0.1215085773
      0.1184793461
      0.1155209781
      0.1126814351
      0.1100074782
      0.1075434755
      0.1053309791
      0.1034071624
      0.1018048220
      0.1005533043
      0.0996725799
      0.0991780357
      0.0990787819
      0.0993762432
      0.1000655711
      0.1011337660
      0.1025637892
      0.1043309133
      0.1064033023
      0.1087465913
      0.1113208955
      0.1140834116
      0.1169882664
      0.1199881547
      0.1230345565
      0.1260790941
      0.1290738713
      0.1319725982
      0.1347309269
      0.1373073513
      0.1396634805
      0.1417647257
      0.1435804902
      0.1450846657
      0.1424685943
      0.1436931237
      0.1445518682
      0.1450328606
      0.1451293898
      0.1448401293
      0.1441690894
      0.1431256265
      0.1417243470
      0.1399849925
      0.1379322845
      0.1355956681
      0.1330090768
      0.1302105102
      0.1272416968
      0.1241474811
      0.1209753742
      0.1177747353
      0.1145962218
      0.1114907713
      0.1085090003
      0.1057000098
      0.1031108379
      0.1007850961
      0.0987628977
      0.0970792148
      0.0957614047
      0.0948343293
      0.0943141836
      0.0942095985
      0.0945227486
      0.0952477490
      0.0963729247
      0.0978769489
      0.0997336435
      0.1019124947
      0.1043750961
      0.1070799341
      0.1099812906
      0.1130311990
      0.1161795118
      0.1193754887
      0.1225681035
      0.1257073593
      0.1287446398
      0.1316337717
      0.1343313284
      0.1367974513
      0.1389960697
      0.1408955032
      0.1424685943
      0.1396792088
      0.1409614200
      0.1418605092
      0.1423640348
      0.1424650918
      0.1421622769
      0.1414597612
      0.1403672181
      0.1388997774
      0.1370779091
      0.1349272460
      0.1324784020
      0.1297666380
      0.1268315878
      0.1237167339
      0.1204690180
      0.1171381003
      0.1137758481
      0.1104353682
      0.1071704013
      0.1040341411
      0.1010786122
      0.0983532997
      0.0959046756
      0.0937743789
      0.0919992260
      0.0906123020
      0.0896360099
      0.0890876925
      0.0889776439
      0.0893074570
      0.0900716799
      0.0912556125
      0.0928401329
      0.0947974161
      0.0970916147
      0.0996842295
      0.1025305936
      0.1055829148
      0.1087900790
      0.1120995478
      0.1154575781
      0.1188107724
      0.1221064258
      0.1252937860
      0.1283243826
      0.1311530130
      0.1337379915
      0.1360418832
      0.1380316582
      0.1396792088
      0.1367582273
      0.1381016719
      0.1390435314
      0.1395709785
      0.1396768214
      0.1393596417
      0.1386237330
      0.1374791222
      0.1359414796
      0.1340320183
      0.1317773583
      0.1292092806
      0.1263645161
      0.1232843180
      0.1200141422
      0.1166029995
      0.1131030056
      0.1095684861
      0.1060554004
      0.1026201972
      0.0993191634
      0.0962070528
      0.0933364815
      0.0907563361
      0.0885117231
      0.0866420259
      0.0851779565
      0.0841477184
      0.0835696092
      0.0834533519
      0.0838014294
      0.0846071598
      0.0858574201
      0.0875280021
      0.0895893675
      0.0920072529
      0.0947383790
      0.0977361725
      0.1009494145
      0.1043245502
      0.1078057195
      0.1113366071
      0.1148607437
      0.1183230107
      0.1216699808
      0.1248511071
      0.1278189993
      0.1305303205
      0.1329459635
      0.1350316929
      0.1367582273
      0.1337500992
      0.1351574287
      0.1361439562
      0.1366963426
      0.1368071973
      0.1364750158
      0.1357042650
      0.1345053063
      0.1328943669
      0.1308934378
      0.1285301129
      0.1258374352
      0.1228535671
      0.1196215459
      0.1161887395
      0.1126064742
      0.1089292335
      0.1052141415
      0.1015198821
      0.0979060616
      0.0944318558
      0.0911553393
      0.0881318838
      0.0854136520
      0.0830474243
      0.0810746687
      0.0795329345
      0.0784473300
      0.0778374767
      0.0777150805
      0.0780819082
      0.0789318297
      0.0802480976
      0.0820092749
      0.0841839375
      0.0867314781
      0.0896086760
      0.0927653148
      0.0961478657
      0.0996991736
      0.1033607115
      0.1070727609
      0.1107762225
      0.1144129374
      0.1179271301
      0.1212657011
      0.1243793287
      0.1272226664
      0.1297551418
      0.1319410493
      0.1337500992
      0.1307012712
      0.1321742865
      0.1332066705
      0.1337847008
      0.1339006836
      0.1335531063
      0.1327465560
      0.1314917591
      0.1298054970
      0.1277105250
      0.1252354629
      0.1224145622
      0.1192875320
      0.1158991040
      0.1122987478
      0.1085399790
      0.1046799274
      0.1007783455
      0.0968970251
      0.0930984930
      0.0894453286
      0.0859985649
      0.0828170540
      0.0799555704
      0.0774648587
      0.0753892708
      0.0737631147
      0.0726185335
      0.0719761884
      0.0718469852
      0.0722337859
      0.0731289749
      0.0745178964
      0.0763729410
      0.0786607891
      0.0813431138
      0.0843710682
      0.0876924421
      0.0912498443
      0.0949835130
      0.0988312283
      0.1027305212
      0.1066189147
      0.1104356851
      0.1141221475
      0.1176230176
      0.1208866207
      0.1238658941
      0.1265184857
      0.1288074539
      0.1307012712
      0.1276596893
      0.1291990977
      0.1302778902
      0.1308818192
      0.1310030089
      0.1306398504
      0.1297971100
      0.1284858407
      0.1267233776
      0.1245332539
      0.1219450588
      0.1189943237
      0.1157221951
      0.1121752384
      0.1084048649
      0.1044670006
      0.1004212069
      0.0963301849
      0.0922585509
      0.0882721960
      0.0844367135
      0.0808167148
      0.0774739251
      0.0744667013
      0.0718473584
      0.0696624142
      0.0679545466
      0.0667515633
      0.0660755850
      0.0659399328
      0.0663465175
      0.0672885191
      0.0687468055
      0.0706976358
      0.0731056550
      0.0759248443
      0.0791069871
      0.0825957933
      0.0863315555
      0.0902505637
      0.0942878682
      0.0983773230
      0.1024537584
      0.1064532069
      0.1103145969
      0.1139799521
      0.1173956575
      0.1205125550
      0.1232868408
      0.1256800558
      0.1276596893
      0.1246738848
      0.1262794079
      0.1274043257
      0.1280340494
      0.1281603923
      0.1277817539
      0.1269030041
      0.1255355516
      0.1236972618
      0.1214124008
      0.1187115602
      0.1156314351
      0.1122147057
      0.1085095858
      0.1045695996
      0.1004528278
      0.0962215268
      0.0919410110
      0.0876791016
      0.0835046136
      0.0794866937
      0.0756929191
      0.0721887028
      0.0690349802
      0.0662885190
      0.0639989427
      0.0622039793
      0.0609403183
      0.0602311111
      0.0600884114
      0.0605155509
      0.0615038485
      0.0630372405
      0.0650841841
      0.0676073623
      0.0705644832
      0.0739006167
      0.0775576860
      0.0814717647
      0.0855766361
      0.0898034102
      0.0940832540
      0.0983474507
      0.1025295295
      0.1065654036
      0.1103949835
      0.1139622443
      0.1172163901
      0.1201118143
      0.1226088974
      0.1246738848
      0.1217923946
      0.1234625046
      0.1246325640
      0.1252874611
      0.1254188708
      0.1250250814
      0.1241111434
      0.1226887589
      0.1207763082
      0.1183987867
      0.1155876812
      0.1123809097
      0.1088224888
      0.1049624119
      0.1008560269
      0.0965637869
      0.0921502562
      0.0876836907
      0.0832346128
      0.0788752387
      0.0746776040
      0.0707129588
      0.0670494394
      0.0637517494
      0.0608777239
      0.0584789980
      0.0566040705
      0.0552829451
      0.0545403233
      0.0543913397
      0.0548379512
      0.0558727445
      0.0574738188
      0.0596155735
      0.0622586270
      0.0653509357
      0.0688395012
      0.0726617456
      0.0767517665
      0.0810391493
      0.0854525132
      0.0899192057
      0.0943680193
      0.0987291678
      0.1029363628
      0.1069267997
      0.1106426833
      0.1140311278
      0.1170452240
      0.1196438522
      0.1217923946
      0.1190626728
      0.1207948069
      0.1220080973
      0.1226871801
      0.1228234119
      0.1224151201
      0.1214674255
      0.1199923588
      0.1180087721
      0.1155423113
      0.1126253837
      0.1092969375
      0.1056024248
      0.1015933085
      0.0973269460
      0.0928657287
      0.0882768218
      0.0836308501
      0.0790014730
      0.0744635645
      0.0700926940
      0.0659627831
      0.0621457223
      0.0587084257
      0.0557137770
      0.0532166574
      0.0512572812
      0.0498777064
      0.0491035146
      0.0489476500
      0.0494140670
      0.0504928531
      0.0521670558
      0.0544004720
      0.0571518442
      0.0603757319
      0.0640107253
      0.0679931385
      0.0722525109
      0.0767164138
      0.0813093779
      0.0859564612
      0.0905828600
      0.0951166281
      0.0994884689
      0.1036337628
      0.1074923395
      0.1110099276
      0.1141378565
      0.1168340477
      0.1190626728
      0.1165305156
      0.1183207699
      0.1195746980
      0.1202764128
      0.1204172128
      0.1199952848
      0.1190159354
      0.1174914288
      0.1154410625
      0.1128911213
      0.1098747643
      0.1064320433
      0.1026095301
      0.0984603242
      0.0940433206
      0.0894231277
      0.0846688689
      0.0798539595
      0.0750543559
      0.0703482134
      0.0658135346
      0.0615278673
      0.0575652975
      0.0539966283
      0.0508846105
      0.0482856251
      0.0462551138
      0.0448237583
      0.0440187614
      0.0438573729
      0.0443413396
      0.0454629696
      0.0471969251
      0.0495170798
      0.0523802217
      0.0557273777
      0.0595018077
      0.0636347434
      0.0680546456
      0.0726846404
      0.0774474520
      0.0822642466
      0.0870582994
      0.0917543625
      0.0962814186
      0.1005721841
      0.1045651173
      0.1082039153
      0.1114389225
      0.1142266075
      0.1165305156
      0.1142388077
      0.1160823370
      0.1173733345
      0.1180958191
      0.1182407392
      0.1178063819
      0.1167980642
      0.1152283448
      0.1131169030
      0.1104905436
      0.1073832238
      0.1038357954
      0.0998961106
      0.0956184056
      0.0910634016
      0.0862972102
      0.0813913576
      0.0764210953
      0.0714653299
      0.0666042505
      0.0619192640
      0.0574898691
      0.0533939259
      0.0497035529
      0.0464876680
      0.0438060813
      0.0416988678
      0.0402153150
      0.0393831220
      0.0392153826
      0.0397170430
      0.0408765932
      0.0426776319
      0.0450776476
      0.0480318294
      0.0514939338
      0.0553953752
      0.0596678280
      0.0642346062
      0.0690179660
      0.0739363284
      0.0789094824
      0.0838570583
      0.0887024011
      0.0933715095
      0.0977959013
      0.1019117062
      0.1056617254
      0.1089945824
      0.1118661579
      0.1142388077
      0.1122271187
      0.1141177061
      0.1154416738
      0.1161824582
      0.1163311044
      0.1158856836
      0.1148517299
      0.1132419425
      0.1110763542
      0.1083822929
      0.1051942469
      0.1015540279
      0.0975102501
      0.0931186124
      0.0884408708
      0.0835451567
      0.0785043028
      0.0733961534
      0.0683011121
      0.0633024974
      0.0584831991
      0.0539263263
      0.0497107816
      0.0459129154
      0.0425987774
      0.0398285044
      0.0376677807
      0.0361436350
      0.0352855789
      0.0351138586
      0.0356292725
      0.0368247542
      0.0386695780
      0.0411408949
      0.0441921743
      0.0477548337
      0.0517712896
      0.0561667175
      0.0608653771
      0.0657844172
      0.0708419452
      0.0759535696
      0.0810381925
      0.0860157391
      0.0908114509
      0.0953541353
      0.0995793148
      0.1034277333
      0.1068476152
      0.1097933583
      0.1122271187
      0.1105302357
      0.1124610552
      0.1138128736
      0.1145693587
      0.1147210636
      0.1142663127
      0.1132105234
      0.1115666764
      0.1093550679
      0.1066033621
      0.1033467282
      0.0996274110
      0.0954951812
      0.0910063091
      0.0862242460
      0.0812178473
      0.0760622277
      0.0708360627
      0.0656226407
      0.0605060711
      0.0555727318
      0.0509061573
      0.0465894721
      0.0426982875
      0.0393081201
      0.0364833902
      0.0342556834
      0.0326883715
      0.0318104937
      0.0316329627
      0.0321630388
      0.0333862089
      0.0352913113
      0.0378235011
      0.0409351758
      0.0445865912
      0.0486987621
      0.0532011688
      0.0580109546
      0.0630470794
      0.0682223407
      0.0734529930
      0.0786537216
      0.0837446397
      0.0886476465
      0.0932916087
      0.0976094654
      0.1015420375
      0.1050356235
      0.1080447603
      0.1105302357
      0.1091783006
      0.1111410465
      0.1125154874
      0.1132843365
      0.1134386664
      0.1129763148
      0.1119030787
      0.1102319003
      0.1079833346
      0.1051854718
      0.1018736476
      0.0980910412
      0.0938875283
      0.0893208841
      0.0844546164
      0.0793597235
      0.0741112956
      0.0687908513
      0.0634814557
      0.0582708304
      0.0532446557
      0.0484910213
      0.0440911828
      0.0401269488
      0.0366625646
      0.0337599272
      0.0315120171
      0.0299236306
      0.0290262944
      0.0288478991
      0.0293851458
      0.0306351759
      0.0325524037
      0.0351338064
      0.0383302737
      0.0420490373
      0.0462424490
      0.0508279866
      0.0557296330
      0.0608580317
      0.0661296723
      0.0714546561
      0.0767499631
      0.0819309498
      0.0869211044
      0.0916456061
      0.0960386047
      0.1000381079
      0.1035913986
      0.1066509277
      0.1091783006
      0.1081946843
      0.1101813931
      0.1115718527
      0.1123501529
      0.1125060862
      0.1120383984
      0.1109522856
      0.1092611593
      0.1069856393
      0.1041538705
      0.1008019416
      0.0969726906
      0.0927174866
      0.0880933671
      0.0831661515
      0.0780056627
      0.0726902207
      0.0672996129
      0.0619211906
      0.0566401255
      0.0515477003
      0.0467280231
      0.0422699454
      0.0382465334
      0.0347403588
      0.0318319969
      0.0295182735
      0.0279004063
      0.0269968403
      0.0268111734
      0.0273614119
      0.0286176552
      0.0305957827
      0.0332130428
      0.0364202328
      0.0402012775
      0.0444473598
      0.0490993701
      0.0540640385
      0.0592636054
      0.0646028974
      0.0699995230
      0.0753619044
      0.0806107504
      0.0856630236
      0.0904479368
      0.0948946211
      0.0989442173
      0.1025401823
      0.1056374180
      0.1081946843
      0.1075991478
      0.1095972212
      0.1110001027
      0.1117820500
      0.1119405393
      0.1114685400
      0.1103751310
      0.1086718089
      0.1063793956
      0.1035279486
      0.1001500637
      0.0962944388
      0.0920050904
      0.0873491621
      0.0823808893
      0.0771849908
      0.0718232699
      0.0663961573
      0.0609682262
      0.0556528826
      0.0505095430
      0.0456625280
      0.0411511976
      0.0371085985
      0.0333936415
      0.0300945291
      0.0281255460
      0.0266800953
      0.0257429854
      0.0255904594
      0.0261031948
      0.0273835194
      0.0289673373
      0.0316083133
      0.0352497466
      0.0390529981
      0.0433708653
      0.0480351650
      0.0530608842
      0.0582853363
      0.0636815329
      0.0691085215
      0.0745233760
      0.0798035501
      0.0849025254
      0.0897165389
      0.0942027487
      0.0982769309
      0.1019040962
      0.1050198210
      0.1075991478
      0.1074067063
      0.1093952380
      0.1108133734
      0.1115876399
      0.1117537965
      0.1112755807
      0.1101824860
      0.1084742861
      0.1061749961
      0.1033201402
      0.0999282970
      0.0960711430
      0.0917608141
      0.0871059921
      0.0821096908
      0.0769187541
      0.0715217205
      0.0661053484
      0.0606339993
      0.0553384278
      0.0501409204
      0.0453297369
      0.0407423590
      0.0367700495
      0.0326146638
      0.0280411309
      0.0273217748
      0.0263334407
      0.0252565181
      0.0252549485
      0.0255817873
      0.0270748264
      0.0273329022
      0.0299865291
      0.0349572944
      0.0385749183
      0.0430750305
      0.0476272069
      0.0527652033
      0.0579228621
      0.0634013223
      0.0687845697
      0.0742637140
      0.0795137470
      0.0846640578
      0.0894565336
      0.0939835565
      0.0980418358
      0.1017006064
      0.1048042006
      0.1074067063
      0.1075991478
      0.1095972212
      0.1110001027
      0.1117820500
      0.1119405393
      0.1114685400
      0.1103751310
      0.1086718089
      0.1063793956
      0.1035279486
      0.1001500637
      0.0962944388
      0.0920050904
      0.0873491621
      0.0823808893
      0.0771849908
      0.0718232699
      0.0663961573
      0.0609682262
      0.0556528826
      0.0505095430
      0.0456625280
      0.0411511976
      0.0371085985
      0.0333936415
      0.0300945291
      0.0281255460
      0.0266800953
      0.0257429854
      0.0255904594
      0.0261031948
      0.0273835194
      0.0289673373
      0.0316083133
      0.0352497466
      0.0390529981
      0.0433708653
      0.0480351650
      0.0530608842
      0.0582853363
      0.0636815329
      0.0691085215
      0.0745233760
      0.0798035501
      0.0849025254
      0.0897165389
      0.0942027487
      0.0982769309
      0.1019040962
      0.1050198210
      0.1075991478
      0.1081946843
      0.1101813931
      0.1115718527
      0.1123501529
      0.1125060862
      0.1120383984
      0.1109522856
      0.1092611593
      0.1069856393
      0.1041538705
      0.1008019416
      0.0969726906
      0.0927174866
      0.0880933671
      0.0831661515
      0.0780056627
      0.0726902207
      0.0672996129
      0.0619211906
      0.0566401255
      0.0515477003
      0.0467280231
      0.0422699454
      0.0382465334
      0.0347403588
      0.0318319969
      0.0295182735
      0.0279004063
      0.0269968403
      0.0268111734
      0.0273614119
      0.0286176552
      0.0305957827
      0.0332130428
      0.0364202328
      0.0402012775
      0.0444473598
      0.0490993701
      0.0540640385
      0.0592636054
      0.0646028974
      0.0699995230
      0.0753619044
      0.0806107504
      0.0856630236
      0.0904479368
      0.0948946211
      0.0989442173
      0.1025401823
      0.1056374180
      0.1081946843
      0.1091783006
      0.1111410465
      0.1125154874
      0.1132843365
      0.1134386664
      0.1129763148
      0.1119030787
      0.1102319003
      0.1079833346
      0.1051854718
      0.1018736476
      0.0980910412
      0.0938875283
      0.0893208841
      0.0844546164
      0.0793597235
      0.0741112956
      0.0687908513
      0.0634814557
      0.0582708304
      0.0532446557
      0.0484910213
      0.0440911828
      0.0401269488
      0.0366625646
      0.0337599272
      0.0315120171
      0.0299236306
      0.0290262944
      0.0288478991
      0.0293851458
      0.0306351759
      0.0325524037
      0.0351338064
      0.0383302737
      0.0420490373
      0.0462424490
      0.0508279866
      0.0557296330
      0.0608580317
      0.0661296723
      0.0714546561
      0.0767499631
      0.0819309498
      0.0869211044
      0.0916456061
      0.0960386047
      0.1000381079
      0.1035913986
      0.1066509277
      0.1091783006
      0.1105302357
      0.1124610552
      0.1138128736
      0.1145693587
      0.1147210636
      0.1142663127
      0.1132105234
      0.1115666764
      0.1093550679
      0.1066033621
      0.1033467282
      0.0996274110
      0.0954951812
      0.0910063091
      0.0862242460
      0.0812178473
      0.0760622277
      0.0708360627
      0.0656226407
      0.0605060711
      0.0555727318
      0.0509061573
      0.0465894721
      0.0426982875
      0.0393081201
      0.0364833902
      0.0342556834
      0.0326883715
      0.0318104937
      0.0316329627
      0.0321630388
      0.0333862089
      0.0352913113
      0.0378235011
      0.0409351758
      0.0445865912
      0.0486987621
      0.0532011688
      0.0580109546
      0.0630470794
      0.0682223407
      0.0734529930
      0.0786537216
      0.0837446397
      0.0886476465
      0.0932916087
      0.0976094654
      0.1015420375
      0.1050356235
      0.1080447603
      0.1105302357
      0.1122271187
      0.1141177061
      0.1154416738
      0.1161824582
      0.1163311044
      0.1158856836
      0.1148517299
      0.1132419425
      0.1110763542
      0.1083822929
      0.1051942469
      0.1015540279
      0.0975102501
      0.0931186124