2
	Energy: -8597761.7835458
I          0.00000        0.00000        1.35193
I          0.00000        0.00000       -1.35193
