MOLECULE
PRIMVEC
      0.7853981634      -0.4534498411       0.0000000000
      0.0000000000       0.9068996821       0.0000000000
      0.0000000000       0.0000000000       0.3926990817
PRIMCOORD
     957        1
H        0.0000000000       0.0000000000       0.0000000000
H        0.7853981634      -0.4534498411       0.0000000000
H        1.5707963268      -0.9068996821       0.0000000000
H        2.3561944902      -1.3603495232       0.0000000000
H        3.1415926536      -1.8137993642       0.0000000000
H       -3.1415926536       1.8137993642       0.0000000000
H       -2.3561944902       1.3603495232       0.0000000000
H       -1.5707963268       0.9068996821       0.0000000000
H       -0.7853981634       0.4534498411       0.0000000000
H        0.0000000000       0.9068996821       0.0000000000
H        0.7853981634       0.4534498411       0.0000000000
H        1.5707963268      -0.0000000000       0.0000000000
H        2.3561944902      -0.4534498411       0.0000000000
H        3.1415926536      -0.9068996821       0.0000000000
H       -2.3561944902       2.2672492053       0.0000000000
H       -1.5707963268       1.8137993642       0.0000000000
H       -0.7853981634       1.3603495232       0.0000000000
H        0.0000000000       1.8137993642       0.0000000000
H        0.7853981634       1.3603495232       0.0000000000
H        1.5707963268       0.9068996821       0.0000000000
H        2.3561944902       0.4534498411       0.0000000000
H        3.1415926536      -0.0000000000       0.0000000000
H        3.9269908170      -0.4534498411       0.0000000000
H       -2.3561944902       3.1741488874       0.0000000000
H       -1.5707963268       2.7206990464       0.0000000000
H       -0.7853981634       2.2672492053       0.0000000000
H        0.0000000000       2.7206990464       0.0000000000
H        0.7853981634       2.2672492053       0.0000000000
H        1.5707963268       1.8137993642       0.0000000000
H        2.3561944902       1.3603495232       0.0000000000
H        3.1415926536       0.9068996821       0.0000000000
H        3.9269908170       0.4534498411       0.0000000000
H       -1.5707963268       3.6275987285       0.0000000000
H       -0.7853981634       3.1741488874       0.0000000000
H        0.0000000000       3.6275987285       0.0000000000
H        0.7853981634       3.1741488874       0.0000000000
H        1.5707963268       2.7206990464       0.0000000000
H        2.3561944902       2.2672492053       0.0000000000
H        3.1415926536       1.8137993642       0.0000000000
H        1.5707963268       3.6275987285       0.0000000000
H        2.3561944902       3.1741488874       0.0000000000
H       -2.3561944902      -3.1741488874       0.0000000000
H       -1.5707963268      -3.6275987285       0.0000000000
H        0.0000000000      -3.6275987285       0.0000000000
H       -3.1415926536      -1.8137993642       0.0000000000
H       -2.3561944902      -2.2672492053       0.0000000000
H       -1.5707963268      -2.7206990464       0.0000000000
H       -0.7853981634      -3.1741488874       0.0000000000
H        0.0000000000      -2.7206990464       0.0000000000
H        0.7853981634      -3.1741488874       0.0000000000
H        1.5707963268      -3.6275987285       0.0000000000
H       -3.9269908170      -0.4534498411       0.0000000000
H       -3.1415926536      -0.9068996821       0.0000000000
H       -2.3561944902      -1.3603495232       0.0000000000
H       -1.5707963268      -1.8137993642       0.0000000000
H       -0.7853981634      -2.2672492053       0.0000000000
H        0.0000000000      -1.8137993642       0.0000000000
H        0.7853981634      -2.2672492053       0.0000000000
H        1.5707963268      -2.7206990464       0.0000000000
H        2.3561944902      -3.1741488874       0.0000000000
H       -3.9269908170       0.4534498411       0.0000000000
H       -3.1415926536       0.0000000000       0.0000000000
H       -2.3561944902      -0.4534498411       0.0000000000
H       -1.5707963268      -0.9068996821       0.0000000000
H       -0.7853981634      -1.3603495232       0.0000000000
H        0.0000000000      -0.9068996821       0.0000000000
H        0.7853981634      -1.3603495232       0.0000000000
H        1.5707963268      -1.8137993642       0.0000000000
H        2.3561944902      -2.2672492053       0.0000000000
H       -3.1415926536       0.9068996821       0.0000000000
H       -2.3561944902       0.4534498411       0.0000000000
H       -1.5707963268       0.0000000000       0.0000000000
H       -0.7853981634      -0.4534498411       0.0000000000
H        0.0000000000       0.0000000000       0.3926990817
H        0.7853981634      -0.4534498411       0.3926990817
H        1.5707963268      -0.9068996821       0.3926990817
H        2.3561944902      -1.3603495232       0.3926990817
H        3.1415926536      -1.8137993642       0.3926990817
H       -3.1415926536       1.8137993642       0.3926990817
H       -2.3561944902       1.3603495232       0.3926990817
H       -1.5707963268       0.9068996821       0.3926990817
H       -0.7853981634       0.4534498411       0.3926990817
H        0.0000000000       0.9068996821       0.3926990817
H        0.7853981634       0.4534498411       0.3926990817
H        1.5707963268      -0.0000000000       0.3926990817
H        2.3561944902      -0.4534498411       0.3926990817
H        3.1415926536      -0.9068996821       0.3926990817
H       -2.3561944902       2.2672492053       0.3926990817
H       -1.5707963268       1.8137993642       0.3926990817
H       -0.7853981634       1.3603495232       0.3926990817
H        0.0000000000       1.8137993642       0.3926990817
H        0.7853981634       1.3603495232       0.3926990817
H        1.5707963268       0.9068996821       0.3926990817
H        2.3561944902       0.4534498411       0.3926990817
H        3.1415926536      -0.0000000000       0.3926990817
H        3.9269908170      -0.4534498411       0.3926990817
H       -2.3561944902       3.1741488874       0.3926990817
H       -1.5707963268       2.7206990464       0.3926990817
H       -0.7853981634       2.2672492053       0.3926990817
H        0.0000000000       2.7206990464       0.3926990817
H        0.7853981634       2.2672492053       0.3926990817
H        1.5707963268       1.8137993642       0.3926990817
H        2.3561944902       1.3603495232       0.3926990817
H        3.1415926536       0.9068996821       0.3926990817
H        3.9269908170       0.4534498411       0.3926990817
H       -1.5707963268       3.6275987285       0.3926990817
H       -0.7853981634       3.1741488874       0.3926990817
H        0.0000000000       3.6275987285       0.3926990817
H        0.7853981634       3.1741488874       0.3926990817
H        1.5707963268       2.7206990464       0.3926990817
H        2.3561944902       2.2672492053       0.3926990817
H        3.1415926536       1.8137993642       0.3926990817
H        1.5707963268       3.6275987285       0.3926990817
H        2.3561944902       3.1741488874       0.3926990817
H       -2.3561944902      -3.1741488874       0.3926990817
H       -1.5707963268      -3.6275987285       0.3926990817
H        0.0000000000      -3.6275987285       0.3926990817
H       -3.1415926536      -1.8137993642       0.3926990817
H       -2.3561944902      -2.2672492053       0.3926990817
H       -1.5707963268      -2.7206990464       0.3926990817
H       -0.7853981634      -3.1741488874       0.3926990817
H        0.0000000000      -2.7206990464       0.3926990817
H        0.7853981634      -3.1741488874       0.3926990817
H        1.5707963268      -3.6275987285       0.3926990817
H       -3.9269908170      -0.4534498411       0.3926990817
H       -3.1415926536      -0.9068996821       0.3926990817
H       -2.3561944902      -1.3603495232       0.3926990817
H       -1.5707963268      -1.8137993642       0.3926990817
H       -0.7853981634      -2.2672492053       0.3926990817
H        0.0000000000      -1.8137993642       0.3926990817
H        0.7853981634      -2.2672492053       0.3926990817
H        1.5707963268      -2.7206990464       0.3926990817
H        2.3561944902      -3.1741488874       0.3926990817
H       -3.9269908170       0.4534498411       0.3926990817
H       -3.1415926536       0.0000000000       0.3926990817
H       -2.3561944902      -0.4534498411       0.3926990817
H       -1.5707963268      -0.9068996821       0.3926990817
H       -0.7853981634      -1.3603495232       0.3926990817
H        0.0000000000      -0.9068996821       0.3926990817
H        0.7853981634      -1.3603495232       0.3926990817
H        1.5707963268      -1.8137993642       0.3926990817
H        2.3561944902      -2.2672492053       0.3926990817
H       -3.1415926536       0.9068996821       0.3926990817
H       -2.3561944902       0.4534498411       0.3926990817
H       -1.5707963268       0.0000000000       0.3926990817
H       -0.7853981634      -0.4534498411       0.3926990817
H        0.0000000000       0.0000000000       0.7853981634
H        0.7853981634      -0.4534498411       0.7853981634
H        1.5707963268      -0.9068996821       0.7853981634
H        2.3561944902      -1.3603495232       0.7853981634
H        3.1415926536      -1.8137993642       0.7853981634
H       -3.1415926536       1.8137993642       0.7853981634
H       -2.3561944902       1.3603495232       0.7853981634
H       -1.5707963268       0.9068996821       0.7853981634
H       -0.7853981634       0.4534498411       0.7853981634
H        0.0000000000       0.9068996821       0.7853981634
H        0.7853981634       0.4534498411       0.7853981634
H        1.5707963268      -0.0000000000       0.7853981634
H        2.3561944902      -0.4534498411       0.7853981634
H        3.1415926536      -0.9068996821       0.7853981634
H       -2.3561944902       2.2672492053       0.7853981634
H       -1.5707963268       1.8137993642       0.7853981634
H       -0.7853981634       1.3603495232       0.7853981634
H        0.0000000000       1.8137993642       0.7853981634
H        0.7853981634       1.3603495232       0.7853981634
H        1.5707963268       0.9068996821       0.7853981634
H        2.3561944902       0.4534498411       0.7853981634
H        3.1415926536      -0.0000000000       0.7853981634
H       -1.5707963268       2.7206990464       0.7853981634
H       -0.7853981634       2.2672492053       0.7853981634
H        0.0000000000       2.7206990464       0.7853981634
H        0.7853981634       2.2672492053       0.7853981634
H        1.5707963268       1.8137993642       0.7853981634
H        2.3561944902       1.3603495232       0.7853981634
H        3.1415926536       0.9068996821       0.7853981634
H       -0.7853981634       3.1741488874       0.7853981634
H        0.0000000000       3.6275987285       0.7853981634
H        0.7853981634       3.1741488874       0.7853981634
H        1.5707963268       2.7206990464       0.7853981634
H        2.3561944902       2.2672492053       0.7853981634
H        3.1415926536       1.8137993642       0.7853981634
H        0.0000000000      -3.6275987285       0.7853981634
H       -3.1415926536      -1.8137993642       0.7853981634
H       -2.3561944902      -2.2672492053       0.7853981634
H       -1.5707963268      -2.7206990464       0.7853981634
H       -0.7853981634      -3.1741488874       0.7853981634
H        0.0000000000      -2.7206990464       0.7853981634
H        0.7853981634      -3.1741488874       0.7853981634
H       -3.1415926536      -0.9068996821       0.7853981634
H       -2.3561944902      -1.3603495232       0.7853981634
H       -1.5707963268      -1.8137993642       0.7853981634
H       -0.7853981634      -2.2672492053       0.7853981634
H        0.0000000000      -1.8137993642       0.7853981634
H        0.7853981634      -2.2672492053       0.7853981634
H        1.5707963268      -2.7206990464       0.7853981634
H       -3.1415926536       0.0000000000       0.7853981634
H       -2.3561944902      -0.4534498411       0.7853981634
H       -1.5707963268      -0.9068996821       0.7853981634
H       -0.7853981634      -1.3603495232       0.7853981634
H        0.0000000000      -0.9068996821       0.7853981634
H        0.7853981634      -1.3603495232       0.7853981634
H        1.5707963268      -1.8137993642       0.7853981634
H        2.3561944902      -2.2672492053       0.7853981634
H       -3.1415926536       0.9068996821       0.7853981634
H       -2.3561944902       0.4534498411       0.7853981634
H       -1.5707963268       0.0000000000       0.7853981634
H       -0.7853981634      -0.4534498411       0.7853981634
H        0.0000000000       0.0000000000       1.1780972451
H        0.7853981634      -0.4534498411       1.1780972451
H        1.5707963268      -0.9068996821       1.1780972451
H        2.3561944902      -1.3603495232       1.1780972451
H        3.1415926536      -1.8137993642       1.1780972451
H       -3.1415926536       1.8137993642       1.1780972451
H       -2.3561944902       1.3603495232       1.1780972451
H       -1.5707963268       0.9068996821       1.1780972451
H       -0.7853981634       0.4534498411       1.1780972451
H        0.0000000000       0.9068996821       1.1780972451
H        0.7853981634       0.4534498411       1.1780972451
H        1.5707963268      -0.0000000000       1.1780972451
H        2.3561944902      -0.4534498411       1.1780972451
H        3.1415926536      -0.9068996821       1.1780972451
H       -2.3561944902       2.2672492053       1.1780972451
H       -1.5707963268       1.8137993642       1.1780972451
H       -0.7853981634       1.3603495232       1.1780972451
H        0.0000000000       1.8137993642       1.1780972451
H        0.7853981634       1.3603495232       1.1780972451
H        1.5707963268       0.9068996821       1.1780972451
H        2.3561944902       0.4534498411       1.1780972451
H        3.1415926536      -0.0000000000       1.1780972451
H       -1.5707963268       2.7206990464       1.1780972451
H       -0.7853981634       2.2672492053       1.1780972451
H        0.0000000000       2.7206990464       1.1780972451
H        0.7853981634       2.2672492053       1.1780972451
H        1.5707963268       1.8137993642       1.1780972451
H        2.3561944902       1.3603495232       1.1780972451
H        3.1415926536       0.9068996821       1.1780972451
H       -0.7853981634       3.1741488874       1.1780972451
H        0.0000000000       3.6275987285       1.1780972451
H        0.7853981634       3.1741488874       1.1780972451
H        1.5707963268       2.7206990464       1.1780972451
H        2.3561944902       2.2672492053       1.1780972451
H        3.1415926536       1.8137993642       1.1780972451
H        0.0000000000      -3.6275987285       1.1780972451
H       -3.1415926536      -1.8137993642       1.1780972451
H       -2.3561944902      -2.2672492053       1.1780972451
H       -1.5707963268      -2.7206990464       1.1780972451
H       -0.7853981634      -3.1741488874       1.1780972451
H        0.0000000000      -2.7206990464       1.1780972451
H        0.7853981634      -3.1741488874       1.1780972451
H       -3.1415926536      -0.9068996821       1.1780972451
H       -2.3561944902      -1.3603495232       1.1780972451
H       -1.5707963268      -1.8137993642       1.1780972451
H       -0.7853981634      -2.2672492053       1.1780972451
H        0.0000000000      -1.8137993642       1.1780972451
H        0.7853981634      -2.2672492053       1.1780972451
H        1.5707963268      -2.7206990464       1.1780972451
H       -3.1415926536       0.0000000000       1.1780972451
H       -2.3561944902      -0.4534498411       1.1780972451
H       -1.5707963268      -0.9068996821       1.1780972451
H       -0.7853981634      -1.3603495232       1.1780972451
H        0.0000000000      -0.9068996821       1.1780972451
H        0.7853981634      -1.3603495232       1.1780972451
H        1.5707963268      -1.8137993642       1.1780972451
H        2.3561944902      -2.2672492053       1.1780972451
H       -3.1415926536       0.9068996821       1.1780972451
H       -2.3561944902       0.4534498411       1.1780972451
H       -1.5707963268       0.0000000000       1.1780972451
H       -0.7853981634      -0.4534498411       1.1780972451
H        0.0000000000       0.0000000000       1.5707963268
H        0.7853981634      -0.4534498411       1.5707963268
H        1.5707963268      -0.9068996821       1.5707963268
H        2.3561944902      -1.3603495232       1.5707963268
H        3.1415926536      -1.8137993642       1.5707963268
H       -3.1415926536       1.8137993642       1.5707963268
H       -2.3561944902       1.3603495232       1.5707963268
H       -1.5707963268       0.9068996821       1.5707963268
H       -0.7853981634       0.4534498411       1.5707963268
H        0.0000000000       0.9068996821       1.5707963268
H        0.7853981634       0.4534498411       1.5707963268
H        1.5707963268      -0.0000000000       1.5707963268
H        2.3561944902      -0.4534498411       1.5707963268
H        3.1415926536      -0.9068996821       1.5707963268
H       -2.3561944902       2.2672492053       1.5707963268
H       -1.5707963268       1.8137993642       1.5707963268
H       -0.7853981634       1.3603495232       1.5707963268
H        0.0000000000       1.8137993642       1.5707963268
H        0.7853981634       1.3603495232       1.5707963268
H        1.5707963268       0.9068996821       1.5707963268
H        2.3561944902       0.4534498411       1.5707963268
H        3.1415926536      -0.0000000000       1.5707963268
H       -1.5707963268       2.7206990464       1.5707963268
H       -0.7853981634       2.2672492053       1.5707963268
H        0.0000000000       2.7206990464       1.5707963268
H        0.7853981634       2.2672492053       1.5707963268
H        1.5707963268       1.8137993642       1.5707963268
H        2.3561944902       1.3603495232       1.5707963268
H        3.1415926536       0.9068996821       1.5707963268
H       -0.7853981634       3.1741488874       1.5707963268
H        0.0000000000       3.6275987285       1.5707963268
H        0.7853981634       3.1741488874       1.5707963268
H        1.5707963268       2.7206990464       1.5707963268
H        2.3561944902       2.2672492053       1.5707963268
H        3.1415926536       1.8137993642       1.5707963268
H        0.0000000000      -3.6275987285       1.5707963268
H       -3.1415926536      -1.8137993642       1.5707963268
H       -2.3561944902      -2.2672492053       1.5707963268
H       -1.5707963268      -2.7206990464       1.5707963268
H       -0.7853981634      -3.1741488874       1.5707963268
H        0.0000000000      -2.7206990464       1.5707963268
H        0.7853981634      -3.1741488874       1.5707963268
H       -3.1415926536      -0.9068996821       1.5707963268
H       -2.3561944902      -1.3603495232       1.5707963268
H       -1.5707963268      -1.8137993642       1.5707963268
H       -0.7853981634      -2.2672492053       1.5707963268
H        0.0000000000      -1.8137993642       1.5707963268
H        0.7853981634      -2.2672492053       1.5707963268
H        1.5707963268      -2.7206990464       1.5707963268
H       -3.1415926536       0.0000000000       1.5707963268
H       -2.3561944902      -0.4534498411       1.5707963268
H       -1.5707963268      -0.9068996821       1.5707963268
H       -0.7853981634      -1.3603495232       1.5707963268
H        0.0000000000      -0.9068996821       1.5707963268
H        0.7853981634      -1.3603495232       1.5707963268
H        1.5707963268      -1.8137993642       1.5707963268
H        2.3561944902      -2.2672492053       1.5707963268
H       -3.1415926536       0.9068996821       1.5707963268
H       -2.3561944902       0.4534498411       1.5707963268
H       -1.5707963268       0.0000000000       1.5707963268
H       -0.7853981634      -0.4534498411       1.5707963268
H        0.0000000000       0.0000000000       1.9634954085
H        0.7853981634      -0.4534498411       1.9634954085
H        1.5707963268      -0.9068996821       1.9634954085
H        2.3561944902      -1.3603495232       1.9634954085
H       -2.3561944902       1.3603495232       1.9634954085
H       -1.5707963268       0.9068996821       1.9634954085
H       -0.7853981634       0.4534498411       1.9634954085
H        0.0000000000       0.9068996821       1.9634954085
H        0.7853981634       0.4534498411       1.9634954085
H        1.5707963268      -0.0000000000       1.9634954085
H        2.3561944902      -0.4534498411       1.9634954085
H        3.1415926536      -0.9068996821       1.9634954085
H       -2.3561944902       2.2672492053       1.9634954085
H       -1.5707963268       1.8137993642       1.9634954085
H       -0.7853981634       1.3603495232       1.9634954085
H        0.0000000000       1.8137993642       1.9634954085
H        0.7853981634       1.3603495232       1.9634954085
H        1.5707963268       0.9068996821       1.9634954085
H        2.3561944902       0.4534498411       1.9634954085
H        3.1415926536      -0.0000000000       1.9634954085
H       -1.5707963268       2.7206990464       1.9634954085
H       -0.7853981634       2.2672492053       1.9634954085
H        0.0000000000       2.7206990464       1.9634954085
H        0.7853981634       2.2672492053       1.9634954085
H        1.5707963268       1.8137993642       1.9634954085
H        2.3561944902       1.3603495232       1.9634954085
H        3.1415926536       0.9068996821       1.9634954085
H       -0.7853981634       3.1741488874       1.9634954085
H        0.7853981634       3.1741488874       1.9634954085
H        1.5707963268       2.7206990464       1.9634954085
H        2.3561944902       2.2672492053       1.9634954085
H       -2.3561944902      -2.2672492053       1.9634954085
H       -1.5707963268      -2.7206990464       1.9634954085
H       -0.7853981634      -3.1741488874       1.9634954085
H        0.0000000000      -2.7206990464       1.9634954085
H        0.7853981634      -3.1741488874       1.9634954085
H       -3.1415926536      -0.9068996821       1.9634954085
H       -2.3561944902      -1.3603495232       1.9634954085
H       -1.5707963268      -1.8137993642       1.9634954085
H       -0.7853981634      -2.2672492053       1.9634954085
H        0.0000000000      -1.8137993642       1.9634954085
H        0.7853981634      -2.2672492053       1.9634954085
H        1.5707963268      -2.7206990464       1.9634954085
H       -3.1415926536       0.0000000000       1.9634954085
H       -2.3561944902      -0.4534498411       1.9634954085
H       -1.5707963268      -0.9068996821       1.9634954085
H       -0.7853981634      -1.3603495232       1.9634954085
H        0.0000000000      -0.9068996821       1.9634954085
H        0.7853981634      -1.3603495232       1.9634954085
H        1.5707963268      -1.8137993642       1.9634954085
H        2.3561944902      -2.2672492053       1.9634954085
H       -3.1415926536       0.9068996821       1.9634954085
H       -2.3561944902       0.4534498411       1.9634954085
H       -1.5707963268       0.0000000000       1.9634954085
H       -0.7853981634      -0.4534498411       1.9634954085
H        0.0000000000       0.0000000000       2.3561944902
H        0.7853981634      -0.4534498411       2.3561944902
H        1.5707963268      -0.9068996821       2.3561944902
H        2.3561944902      -1.3603495232       2.3561944902
H       -2.3561944902       1.3603495232       2.3561944902
H       -1.5707963268       0.9068996821       2.3561944902
H       -0.7853981634       0.4534498411       2.3561944902
H        0.0000000000       0.9068996821       2.3561944902
H        0.7853981634       0.4534498411       2.3561944902
H        1.5707963268      -0.0000000000       2.3561944902
H        2.3561944902      -0.4534498411       2.3561944902
H       -1.5707963268       1.8137993642       2.3561944902
H       -0.7853981634       1.3603495232       2.3561944902
H        0.0000000000       1.8137993642       2.3561944902
H        0.7853981634       1.3603495232       2.3561944902
H        1.5707963268       0.9068996821       2.3561944902
H        2.3561944902       0.4534498411       2.3561944902
H        3.1415926536      -0.0000000000       2.3561944902
H       -1.5707963268       2.7206990464       2.3561944902
H       -0.7853981634       2.2672492053       2.3561944902
H        0.0000000000       2.7206990464       2.3561944902
H        0.7853981634       2.2672492053       2.3561944902
H        1.5707963268       1.8137993642       2.3561944902
H        2.3561944902       1.3603495232       2.3561944902
H        1.5707963268       2.7206990464       2.3561944902
H       -1.5707963268      -2.7206990464       2.3561944902
H        0.0000000000      -2.7206990464       2.3561944902
H       -2.3561944902      -1.3603495232       2.3561944902
H       -1.5707963268      -1.8137993642       2.3561944902
H       -0.7853981634      -2.2672492053       2.3561944902
H        0.0000000000      -1.8137993642       2.3561944902
H        0.7853981634      -2.2672492053       2.3561944902
H        1.5707963268      -2.7206990464       2.3561944902
H       -3.1415926536       0.0000000000       2.3561944902
H       -2.3561944902      -0.4534498411       2.3561944902
H       -1.5707963268      -0.9068996821       2.3561944902
H       -0.7853981634      -1.3603495232       2.3561944902
H        0.0000000000      -0.9068996821       2.3561944902
H        0.7853981634      -1.3603495232       2.3561944902
H        1.5707963268      -1.8137993642       2.3561944902
H       -2.3561944902       0.4534498411       2.3561944902
H       -1.5707963268       0.0000000000       2.3561944902
H       -0.7853981634      -0.4534498411       2.3561944902
H        0.0000000000       0.0000000000       2.7488935719
H        0.7853981634      -0.4534498411       2.7488935719
H        1.5707963268      -0.9068996821       2.7488935719
H        2.3561944902      -1.3603495232       2.7488935719
H       -2.3561944902       1.3603495232       2.7488935719
H       -1.5707963268       0.9068996821       2.7488935719
H       -0.7853981634       0.4534498411       2.7488935719
H        0.0000000000       0.9068996821       2.7488935719
H        0.7853981634       0.4534498411       2.7488935719
H        1.5707963268      -0.0000000000       2.7488935719
H        2.3561944902      -0.4534498411       2.7488935719
H       -1.5707963268       1.8137993642       2.7488935719
H       -0.7853981634       1.3603495232       2.7488935719
H        0.0000000000       1.8137993642       2.7488935719
H        0.7853981634       1.3603495232       2.7488935719
H        1.5707963268       0.9068996821       2.7488935719
H        2.3561944902       0.4534498411       2.7488935719
H       -0.7853981634       2.2672492053       2.7488935719
H        0.0000000000       2.7206990464       2.7488935719
H        0.7853981634       2.2672492053       2.7488935719
H        1.5707963268       1.8137993642       2.7488935719
H        2.3561944902       1.3603495232       2.7488935719
H        0.0000000000      -2.7206990464       2.7488935719
H       -2.3561944902      -1.3603495232       2.7488935719
H       -1.5707963268      -1.8137993642       2.7488935719
H       -0.7853981634      -2.2672492053       2.7488935719
H        0.0000000000      -1.8137993642       2.7488935719
H        0.7853981634      -2.2672492053       2.7488935719
H       -2.3561944902      -0.4534498411       2.7488935719
H       -1.5707963268      -0.9068996821       2.7488935719
H       -0.7853981634      -1.3603495232       2.7488935719
H        0.0000000000      -0.9068996821       2.7488935719
H        0.7853981634      -1.3603495232       2.7488935719
H        1.5707963268      -1.8137993642       2.7488935719
H       -2.3561944902       0.4534498411       2.7488935719
H       -1.5707963268       0.0000000000       2.7488935719
H       -0.7853981634      -0.4534498411       2.7488935719
H        0.0000000000       0.0000000000       3.1415926536
H        0.7853981634      -0.4534498411       3.1415926536
H        1.5707963268      -0.9068996821       3.1415926536
H       -1.5707963268       0.9068996821       3.1415926536
H       -0.7853981634       0.4534498411       3.1415926536
H        0.0000000000       0.9068996821       3.1415926536
H        0.7853981634       0.4534498411       3.1415926536
H        1.5707963268      -0.0000000000       3.1415926536
H        2.3561944902      -0.4534498411       3.1415926536
H       -1.5707963268       1.8137993642       3.1415926536
H       -0.7853981634       1.3603495232       3.1415926536
H        0.0000000000       1.8137993642       3.1415926536
H        0.7853981634       1.3603495232       3.1415926536
H        1.5707963268       0.9068996821       3.1415926536
H        2.3561944902       0.4534498411       3.1415926536
H       -0.7853981634       2.2672492053       3.1415926536
H        0.7853981634       2.2672492053       3.1415926536
H        1.5707963268       1.8137993642       3.1415926536
H       -1.5707963268      -1.8137993642       3.1415926536
H       -0.7853981634      -2.2672492053       3.1415926536
H        0.0000000000      -1.8137993642       3.1415926536
H        0.7853981634      -2.2672492053       3.1415926536
H       -2.3561944902      -0.4534498411       3.1415926536
H       -1.5707963268      -0.9068996821       3.1415926536
H       -0.7853981634      -1.3603495232       3.1415926536
H        0.0000000000      -0.9068996821       3.1415926536
H        0.7853981634      -1.3603495232       3.1415926536
H        1.5707963268      -1.8137993642       3.1415926536
H       -2.3561944902       0.4534498411       3.1415926536
H       -1.5707963268       0.0000000000       3.1415926536
H       -0.7853981634      -0.4534498411       3.1415926536
H        0.0000000000       0.0000000000       3.5342917353