CRYSTAL
PRIMVEC
     16.0000000000       0.0000000000       0.0000000000
      8.0000000000      13.8564064606       0.0000000000
      0.0000000000       0.0000000000      32.0000000000
PRIMCOORD
    7680        1
H        0.0000000000       0.0000000000       0.0000000000
H        1.0000000000       0.0000000000       0.0000000000
H        2.0000000000       0.0000000000       0.0000000000
H        3.0000000000       0.0000000000       0.0000000000
H        4.0000000000       0.0000000000       0.0000000000
H        5.0000000000       0.0000000000       0.0000000000
H        6.0000000000       0.0000000000       0.0000000000
H        7.0000000000       0.0000000000       0.0000000000
H        8.0000000000       0.0000000000       0.0000000000
H        9.0000000000       0.0000000000       0.0000000000
H       10.0000000000       0.0000000000       0.0000000000
H       11.0000000000       0.0000000000       0.0000000000
H       12.0000000000       0.0000000000       0.0000000000
H       13.0000000000       0.0000000000       0.0000000000
H       14.0000000000       0.0000000000       0.0000000000
H       15.0000000000       0.0000000000       0.0000000000
H        0.5000000000       0.8660254038       0.0000000000
H        1.5000000000       0.8660254038       0.0000000000
H        2.5000000000       0.8660254038       0.0000000000
H        3.5000000000       0.8660254038       0.0000000000
H        4.5000000000       0.8660254038       0.0000000000
H        5.5000000000       0.8660254038       0.0000000000
H        6.5000000000       0.8660254038       0.0000000000
H        7.5000000000       0.8660254038       0.0000000000
H        8.5000000000       0.8660254038       0.0000000000
H        9.5000000000       0.8660254038       0.0000000000
H       10.5000000000       0.8660254038       0.0000000000
H       11.5000000000       0.8660254038       0.0000000000
H       12.5000000000       0.8660254038       0.0000000000
H       13.5000000000       0.8660254038       0.0000000000
H       14.5000000000       0.8660254038       0.0000000000
H       15.5000000000       0.8660254038       0.0000000000
H        1.0000000000       1.7320508076       0.0000000000
H        2.0000000000       1.7320508076       0.0000000000
H        3.0000000000       1.7320508076       0.0000000000
H        4.0000000000       1.7320508076       0.0000000000
H        5.0000000000       1.7320508076       0.0000000000
H        6.0000000000       1.7320508076       0.0000000000
H        7.0000000000       1.7320508076       0.0000000000
H        8.0000000000       1.7320508076       0.0000000000
H        9.0000000000       1.7320508076       0.0000000000
H       10.0000000000       1.7320508076       0.0000000000
H       11.0000000000       1.7320508076       0.0000000000
H       12.0000000000       1.7320508076       0.0000000000
H       13.0000000000       1.7320508076       0.0000000000
H       14.0000000000       1.7320508076       0.0000000000
H       15.0000000000       1.7320508076       0.0000000000
H       16.0000000000       1.7320508076       0.0000000000
H        1.5000000000       2.5980762114       0.0000000000
H        2.5000000000       2.5980762114       0.0000000000
H        3.5000000000       2.5980762114       0.0000000000
H        4.5000000000       2.5980762114       0.0000000000
H        5.5000000000       2.5980762114       0.0000000000
H        6.5000000000       2.5980762114       0.0000000000
H        7.5000000000       2.5980762114       0.0000000000
H        8.5000000000       2.5980762114       0.0000000000
H        9.5000000000       2.5980762114       0.0000000000
H       10.5000000000       2.5980762114       0.0000000000
H       11.5000000000       2.5980762114       0.0000000000
H       12.5000000000       2.5980762114       0.0000000000
H       13.5000000000       2.5980762114       0.0000000000
H       14.5000000000       2.5980762114       0.0000000000
H       15.5000000000       2.5980762114       0.0000000000
H       16.5000000000       2.5980762114       0.0000000000
H        2.0000000000       3.4641016151       0.0000000000
H        3.0000000000       3.4641016151       0.0000000000
H        4.0000000000       3.4641016151       0.0000000000
H        5.0000000000       3.4641016151       0.0000000000
H        6.0000000000       3.4641016151       0.0000000000
H        7.0000000000       3.4641016151       0.0000000000
H        8.0000000000       3.4641016151       0.0000000000
H        9.0000000000       3.4641016151       0.0000000000
H       10.0000000000       3.4641016151       0.0000000000
H       11.0000000000       3.4641016151       0.0000000000
H       12.0000000000       3.4641016151       0.0000000000
H       13.0000000000       3.4641016151       0.0000000000
H       14.0000000000       3.4641016151       0.0000000000
H       15.0000000000       3.4641016151       0.0000000000
H       16.0000000000       3.4641016151       0.0000000000
H       17.0000000000       3.4641016151       0.0000000000
H        2.5000000000       4.3301270189       0.0000000000
H        3.5000000000       4.3301270189       0.0000000000
H        4.5000000000       4.3301270189       0.0000000000
H        5.5000000000       4.3301270189       0.0000000000
H        6.5000000000       4.3301270189       0.0000000000
H        7.5000000000       4.3301270189       0.0000000000
H        8.5000000000       4.3301270189       0.0000000000
H        9.5000000000       4.3301270189       0.0000000000
H       10.5000000000       4.3301270189       0.0000000000
H       11.5000000000       4.3301270189       0.0000000000
H       12.5000000000       4.3301270189       0.0000000000
H       13.5000000000       4.3301270189       0.0000000000
H       14.5000000000       4.3301270189       0.0000000000
H       15.5000000000       4.3301270189       0.0000000000
H       16.5000000000       4.3301270189       0.0000000000
H       17.5000000000       4.3301270189       0.0000000000
H        3.0000000000       5.1961524227       0.0000000000
H        4.0000000000       5.1961524227       0.0000000000
H        5.0000000000       5.1961524227       0.0000000000
H        6.0000000000       5.1961524227       0.0000000000
H        7.0000000000       5.1961524227       0.0000000000
H        8.0000000000       5.1961524227       0.0000000000
H        9.0000000000       5.1961524227       0.0000000000
H       10.0000000000       5.1961524227       0.0000000000
H       11.0000000000       5.1961524227       0.0000000000
H       12.0000000000       5.1961524227       0.0000000000
H       13.0000000000       5.1961524227       0.0000000000
H       14.0000000000       5.1961524227       0.0000000000
H       15.0000000000       5.1961524227       0.0000000000
H       16.0000000000       5.1961524227       0.0000000000
H       17.0000000000       5.1961524227       0.0000000000
H       18.0000000000       5.1961524227       0.0000000000
H        3.5000000000       6.0621778265       0.0000000000
H        4.5000000000       6.0621778265       0.0000000000
H        5.5000000000       6.0621778265       0.0000000000
H        6.5000000000       6.0621778265       0.0000000000
H        7.5000000000       6.0621778265       0.0000000000
H        8.5000000000       6.0621778265       0.0000000000
H        9.5000000000       6.0621778265       0.0000000000
H       10.5000000000       6.0621778265       0.0000000000
H       11.5000000000       6.0621778265       0.0000000000
H       12.5000000000       6.0621778265       0.0000000000
H       13.5000000000       6.0621778265       0.0000000000
H       14.5000000000       6.0621778265       0.0000000000
H       15.5000000000       6.0621778265       0.0000000000
H       16.5000000000       6.0621778265       0.0000000000
H       17.5000000000       6.0621778265       0.0000000000
H       18.5000000000       6.0621778265       0.0000000000
H        4.0000000000       6.9282032303       0.0000000000
H        5.0000000000       6.9282032303       0.0000000000
H        6.0000000000       6.9282032303       0.0000000000
H        7.0000000000       6.9282032303       0.0000000000
H        8.0000000000       6.9282032303       0.0000000000
H        9.0000000000       6.9282032303       0.0000000000
H       10.0000000000       6.9282032303       0.0000000000
H       11.0000000000       6.9282032303       0.0000000000
H       12.0000000000       6.9282032303       0.0000000000
H       13.0000000000       6.9282032303       0.0000000000
H       14.0000000000       6.9282032303       0.0000000000
H       15.0000000000       6.9282032303       0.0000000000
H       16.0000000000       6.9282032303       0.0000000000
H       17.0000000000       6.9282032303       0.0000000000
H       18.0000000000       6.9282032303       0.0000000000
H       19.0000000000       6.9282032303       0.0000000000
H        4.5000000000       7.7942286341       0.0000000000
H        5.5000000000       7.7942286341       0.0000000000
H        6.5000000000       7.7942286341       0.0000000000
H        7.5000000000       7.7942286341       0.0000000000
H        8.5000000000       7.7942286341       0.0000000000
H        9.5000000000       7.7942286341       0.0000000000
H       10.5000000000       7.7942286341       0.0000000000
H       11.5000000000       7.7942286341       0.0000000000
H       12.5000000000       7.7942286341       0.0000000000
H       13.5000000000       7.7942286341       0.0000000000
H       14.5000000000       7.7942286341       0.0000000000
H       15.5000000000       7.7942286341       0.0000000000
H       16.5000000000       7.7942286341       0.0000000000
H       17.5000000000       7.7942286341       0.0000000000
H       18.5000000000       7.7942286341       0.0000000000
H       19.5000000000       7.7942286341       0.0000000000
H        5.0000000000       8.6602540378       0.0000000000
H        6.0000000000       8.6602540378       0.0000000000
H        7.0000000000       8.6602540378       0.0000000000
H        8.0000000000       8.6602540378       0.0000000000
H        9.0000000000       8.6602540378       0.0000000000
H       10.0000000000       8.6602540378       0.0000000000
H       11.0000000000       8.6602540378       0.0000000000
H       12.0000000000       8.6602540378       0.0000000000
H       13.0000000000       8.6602540378       0.0000000000
H       14.0000000000       8.6602540378       0.0000000000
H       15.0000000000       8.6602540378       0.0000000000
H       16.0000000000       8.6602540378       0.0000000000
H       17.0000000000       8.6602540378       0.0000000000
H       18.0000000000       8.6602540378       0.0000000000
H       19.0000000000       8.6602540378       0.0000000000
H       20.0000000000       8.6602540378       0.0000000000
H        5.5000000000       9.5262794416       0.0000000000
H        6.5000000000       9.5262794416       0.0000000000
H        7.5000000000       9.5262794416       0.0000000000
H        8.5000000000       9.5262794416       0.0000000000
H        9.5000000000       9.5262794416       0.0000000000
H       10.5000000000       9.5262794416       0.0000000000
H       11.5000000000       9.5262794416       0.0000000000
H       12.5000000000       9.5262794416       0.0000000000
H       13.5000000000       9.5262794416       0.0000000000
H       14.5000000000       9.5262794416       0.0000000000
H       15.5000000000       9.5262794416       0.0000000000
H       16.5000000000       9.5262794416       0.0000000000
H       17.5000000000       9.5262794416       0.0000000000
H       18.5000000000       9.5262794416       0.0000000000
H       19.5000000000       9.5262794416       0.0000000000
H       20.5000000000       9.5262794416       0.0000000000
H        6.0000000000      10.3923048454       0.0000000000
H        7.0000000000      10.3923048454       0.0000000000
H        8.0000000000      10.3923048454       0.0000000000
H        9.0000000000      10.3923048454       0.0000000000
H       10.0000000000      10.3923048454       0.0000000000
H       11.0000000000      10.3923048454       0.0000000000
H       12.0000000000      10.3923048454       0.0000000000
H       13.0000000000      10.3923048454       0.0000000000
H       14.0000000000      10.3923048454       0.0000000000
H       15.0000000000      10.3923048454       0.0000000000
H       16.0000000000      10.3923048454       0.0000000000
H       17.0000000000      10.3923048454       0.0000000000
H       18.0000000000      10.3923048454       0.0000000000
H       19.0000000000      10.3923048454       0.0000000000
H       20.0000000000      10.3923048454       0.0000000000
H       21.0000000000      10.3923048454       0.0000000000
H        6.5000000000      11.2583302492       0.0000000000
H        7.5000000000      11.2583302492       0.0000000000
H        8.5000000000      11.2583302492       0.0000000000
H        9.5000000000      11.2583302492       0.0000000000
H       10.5000000000      11.2583302492       0.0000000000
H       11.5000000000      11.2583302492       0.0000000000
H       12.5000000000      11.2583302492       0.0000000000
H       13.5000000000      11.2583302492       0.0000000000
H       14.5000000000      11.2583302492       0.0000000000
H       15.5000000000      11.2583302492       0.0000000000
H       16.5000000000      11.2583302492       0.0000000000
H       17.5000000000      11.2583302492       0.0000000000
H       18.5000000000      11.2583302492       0.0000000000
H       19.5000000000      11.2583302492       0.0000000000
H       20.5000000000      11.2583302492       0.0000000000
H       21.5000000000      11.2583302492       0.0000000000
H        7.0000000000      12.1243556530       0.0000000000
H        8.0000000000      12.1243556530       0.0000000000
H        9.0000000000      12.1243556530       0.0000000000
H       10.0000000000      12.1243556530       0.0000000000
H       11.0000000000      12.1243556530       0.0000000000
H       12.0000000000      12.1243556530       0.0000000000
H       13.0000000000      12.1243556530       0.0000000000
H       14.0000000000      12.1243556530       0.0000000000
H       15.0000000000      12.1243556530       0.0000000000
H       16.0000000000      12.1243556530       0.0000000000
H       17.0000000000      12.1243556530       0.0000000000
H       18.0000000000      12.1243556530       0.0000000000
H       19.0000000000      12.1243556530       0.0000000000
H       20.0000000000      12.1243556530       0.0000000000
H       21.0000000000      12.1243556530       0.0000000000
H       22.0000000000      12.1243556530       0.0000000000
H        7.5000000000      12.9903810568       0.0000000000
H        8.5000000000      12.9903810568       0.0000000000
H        9.5000000000      12.9903810568       0.0000000000
H       10.5000000000      12.9903810568       0.0000000000
H       11.5000000000      12.9903810568       0.0000000000
H       12.5000000000      12.9903810568       0.0000000000
H       13.5000000000      12.9903810568       0.0000000000
H       14.5000000000      12.9903810568       0.0000000000
H       15.5000000000      12.9903810568       0.0000000000
H       16.5000000000      12.9903810568       0.0000000000
H       17.5000000000      12.9903810568       0.0000000000
H       18.5000000000      12.9903810568       0.0000000000
H       19.5000000000      12.9903810568       0.0000000000
H       20.5000000000      12.9903810568       0.0000000000
H       21.5000000000      12.9903810568       0.0000000000
H       22.5000000000      12.9903810568       0.0000000000
H        0.0000000000       0.0000000000       1.0666666667
H        1.0000000000       0.0000000000       1.0666666667
H        2.0000000000       0.0000000000       1.0666666667
H        3.0000000000       0.0000000000       1.0666666667
H        4.0000000000       0.0000000000       1.0666666667
H        5.0000000000       0.0000000000       1.0666666667
H        6.0000000000       0.0000000000       1.0666666667
H        7.0000000000       0.0000000000       1.0666666667
H        8.0000000000       0.0000000000       1.0666666667
H        9.0000000000       0.0000000000       1.0666666667
H       10.0000000000       0.0000000000       1.0666666667
H       11.0000000000       0.0000000000       1.0666666667
H       12.0000000000       0.0000000000       1.0666666667
H       13.0000000000       0.0000000000       1.0666666667
H       14.0000000000       0.0000000000       1.0666666667
H       15.0000000000       0.0000000000       1.0666666667
H        0.5000000000       0.8660254038       1.0666666667
H        1.5000000000       0.8660254038       1.0666666667
H        2.5000000000       0.8660254038       1.0666666667
H        3.5000000000       0.8660254038       1.0666666667
H        4.5000000000       0.8660254038       1.0666666667
H        5.5000000000       0.8660254038       1.0666666667
H        6.5000000000       0.8660254038       1.0666666667
H        7.5000000000       0.8660254038       1.0666666667
H        8.5000000000       0.8660254038       1.0666666667
H        9.5000000000       0.8660254038       1.0666666667
H       10.5000000000       0.8660254038       1.0666666667
H       11.5000000000       0.8660254038       1.0666666667
H       12.5000000000       0.8660254038       1.0666666667
H       13.5000000000       0.8660254038       1.0666666667
H       14.5000000000       0.8660254038       1.0666666667
H       15.5000000000       0.8660254038       1.0666666667
H        1.0000000000       1.7320508076       1.0666666667
H        2.0000000000       1.7320508076       1.0666666667
H        3.0000000000       1.7320508076       1.0666666667
H        4.0000000000       1.7320508076       1.0666666667
H        5.0000000000       1.7320508076       1.0666666667
H        6.0000000000       1.7320508076       1.0666666667
H        7.0000000000       1.7320508076       1.0666666667
H        8.0000000000       1.7320508076       1.0666666667
H        9.0000000000       1.7320508076       1.0666666667
H       10.0000000000       1.7320508076       1.0666666667
H       11.0000000000       1.7320508076       1.0666666667
H       12.0000000000       1.7320508076       1.0666666667
H       13.0000000000       1.7320508076       1.0666666667
H       14.0000000000       1.7320508076       1.0666666667
H       15.0000000000       1.7320508076       1.0666666667
H       16.0000000000       1.7320508076       1.0666666667
H        1.5000000000       2.5980762114       1.0666666667
H        2.5000000000       2.5980762114       1.0666666667
H        3.5000000000       2.5980762114       1.0666666667
H        4.5000000000       2.5980762114       1.0666666667
H        5.5000000000       2.5980762114       1.0666666667
H        6.5000000000       2.5980762114       1.0666666667
H        7.5000000000       2.5980762114       1.0666666667
H        8.5000000000       2.5980762114       1.0666666667
H        9.5000000000       2.5980762114       1.0666666667
H       10.5000000000       2.5980762114       1.0666666667
H       11.5000000000       2.5980762114       1.0666666667
H       12.5000000000       2.5980762114       1.0666666667
H       13.5000000000       2.5980762114       1.0666666667
H       14.5000000000       2.5980762114       1.0666666667
H       15.5000000000       2.5980762114       1.0666666667
H       16.5000000000       2.5980762114       1.0666666667
H        2.0000000000       3.4641016151       1.0666666667
H        3.0000000000       3.4641016151       1.0666666667
H        4.0000000000       3.4641016151       1.0666666667
H        5.0000000000       3.4641016151       1.0666666667
H        6.0000000000       3.4641016151       1.0666666667
H        7.0000000000       3.4641016151       1.0666666667
H        8.0000000000       3.4641016151       1.0666666667
H        9.0000000000       3.4641016151       1.0666666667
H       10.0000000000       3.4641016151       1.0666666667
H       11.0000000000       3.4641016151       1.0666666667
H       12.0000000000       3.4641016151       1.0666666667
H       13.0000000000       3.4641016151       1.0666666667
H       14.0000000000       3.4641016151       1.0666666667
H       15.0000000000       3.4641016151       1.0666666667
H       16.0000000000       3.4641016151       1.0666666667
H       17.0000000000       3.4641016151       1.0666666667
H        2.5000000000       4.3301270189       1.0666666667
H        3.5000000000       4.3301270189       1.0666666667
H        4.5000000000       4.3301270189       1.0666666667
H        5.5000000000       4.3301270189       1.0666666667
H        6.5000000000       4.3301270189       1.0666666667
H        7.5000000000       4.3301270189       1.0666666667
H        8.5000000000       4.3301270189       1.0666666667
H        9.5000000000       4.3301270189       1.0666666667
H       10.5000000000       4.3301270189       1.0666666667
H       11.5000000000       4.3301270189       1.0666666667
H       12.5000000000       4.3301270189       1.0666666667
H       13.5000000000       4.3301270189       1.0666666667
H       14.5000000000       4.3301270189       1.0666666667
H       15.5000000000       4.3301270189       1.0666666667
H       16.5000000000       4.3301270189       1.0666666667
H       17.5000000000       4.3301270189       1.0666666667
H        3.0000000000       5.1961524227       1.0666666667
H        4.0000000000       5.1961524227       1.0666666667
H        5.0000000000       5.1961524227       1.0666666667
H        6.0000000000       5.1961524227       1.0666666667
H        7.0000000000       5.1961524227       1.0666666667
H        8.0000000000       5.1961524227       1.0666666667
H        9.0000000000       5.1961524227       1.0666666667
H       10.0000000000       5.1961524227       1.0666666667
H       11.0000000000       5.1961524227       1.0666666667
H       12.0000000000       5.1961524227       1.0666666667
H       13.0000000000       5.1961524227       1.0666666667
H       14.0000000000       5.1961524227       1.0666666667
H       15.0000000000       5.1961524227       1.0666666667
H       16.0000000000       5.1961524227       1.0666666667
H       17.0000000000       5.1961524227       1.0666666667
H       18.0000000000       5.1961524227       1.0666666667
H        3.5000000000       6.0621778265       1.0666666667
H        4.5000000000       6.0621778265       1.0666666667
H        5.5000000000       6.0621778265       1.0666666667
H        6.5000000000       6.0621778265       1.0666666667
H        7.5000000000       6.0621778265       1.0666666667
H        8.5000000000       6.0621778265       1.0666666667
H        9.5000000000       6.0621778265       1.0666666667
H       10.5000000000       6.0621778265       1.0666666667
H       11.5000000000       6.0621778265       1.0666666667
H       12.5000000000       6.0621778265       1.0666666667
H       13.5000000000       6.0621778265       1.0666666667
H       14.5000000000       6.0621778265       1.0666666667
H       15.5000000000       6.0621778265       1.0666666667
H       16.5000000000       6.0621778265       1.0666666667
H       17.5000000000       6.0621778265       1.0666666667
H       18.5000000000       6.0621778265       1.0666666667
H        4.0000000000       6.9282032303       1.0666666667
H        5.0000000000       6.9282032303       1.0666666667
H        6.0000000000       6.9282032303       1.0666666667
H        7.0000000000       6.9282032303       1.0666666667
H        8.0000000000       6.9282032303       1.0666666667
H        9.0000000000       6.9282032303       1.0666666667
H       10.0000000000       6.9282032303       1.0666666667
H       11.0000000000       6.9282032303       1.0666666667
H       12.0000000000       6.9282032303       1.0666666667
H       13.0000000000       6.9282032303       1.0666666667
H       14.0000000000       6.9282032303       1.0666666667
H       15.0000000000       6.9282032303       1.0666666667
H       16.0000000000       6.9282032303       1.0666666667
H       17.0000000000       6.9282032303       1.0666666667
H       18.0000000000       6.9282032303       1.0666666667
H       19.0000000000       6.9282032303       1.0666666667
H        4.5000000000       7.7942286341       1.0666666667
H        5.5000000000       7.7942286341       1.0666666667
H        6.5000000000       7.7942286341       1.0666666667
H        7.5000000000       7.7942286341       1.0666666667
H        8.5000000000       7.7942286341       1.0666666667
H        9.5000000000       7.7942286341       1.0666666667
H       10.5000000000       7.7942286341       1.0666666667
H       11.5000000000       7.7942286341       1.0666666667
H       12.5000000000       7.7942286341       1.0666666667
H       13.5000000000       7.7942286341       1.0666666667
H       14.5000000000       7.7942286341       1.0666666667
H       15.5000000000       7.7942286341       1.0666666667
H       16.5000000000       7.7942286341       1.0666666667
H       17.5000000000       7.7942286341       1.0666666667
H       18.5000000000       7.7942286341       1.0666666667
H       19.5000000000       7.7942286341       1.0666666667
H        5.0000000000       8.6602540378       1.0666666667
H        6.0000000000       8.6602540378       1.0666666667
H        7.0000000000       8.6602540378       1.0666666667
H        8.0000000000       8.6602540378       1.0666666667
H        9.0000000000       8.6602540378       1.0666666667
H       10.0000000000       8.6602540378       1.0666666667
H       11.0000000000       8.6602540378       1.0666666667
H       12.0000000000       8.6602540378       1.0666666667
H       13.0000000000       8.6602540378       1.0666666667
H       14.0000000000       8.6602540378       1.0666666667
H       15.0000000000       8.6602540378       1.0666666667
H       16.0000000000       8.6602540378       1.0666666667
H       17.0000000000       8.6602540378       1.0666666667
H       18.0000000000       8.6602540378       1.0666666667
H       19.0000000000       8.6602540378       1.0666666667
H       20.0000000000       8.6602540378       1.0666666667
H        5.5000000000       9.5262794416       1.0666666667
H        6.5000000000       9.5262794416       1.0666666667
H        7.5000000000       9.5262794416       1.0666666667
H        8.5000000000       9.5262794416       1.0666666667
H        9.5000000000       9.5262794416       1.0666666667
H       10.5000000000       9.5262794416       1.0666666667
H       11.5000000000       9.5262794416       1.0666666667
H       12.5000000000       9.5262794416       1.0666666667
H       13.5000000000       9.5262794416       1.0666666667
H       14.5000000000       9.5262794416       1.0666666667
H       15.5000000000       9.5262794416       1.0666666667
H       16.5000000000       9.5262794416       1.0666666667
H       17.5000000000       9.5262794416       1.0666666667
H       18.5000000000       9.5262794416       1.0666666667
H       19.5000000000       9.5262794416       1.0666666667
H       20.5000000000       9.5262794416       1.0666666667
H        6.0000000000      10.3923048454       1.0666666667
H        7.0000000000      10.3923048454       1.0666666667
H        8.0000000000      10.3923048454       1.0666666667
H        9.0000000000      10.3923048454       1.0666666667
H       10.0000000000      10.3923048454       1.0666666667
H       11.0000000000      10.3923048454       1.0666666667
H       12.0000000000      10.3923048454       1.0666666667
H       13.0000000000      10.3923048454       1.0666666667
H       14.0000000000      10.3923048454       1.0666666667
H       15.0000000000      10.3923048454       1.0666666667
H       16.0000000000      10.3923048454       1.0666666667
H       17.0000000000      10.3923048454       1.0666666667
H       18.0000000000      10.3923048454       1.0666666667
H       19.0000000000      10.3923048454       1.0666666667
H       20.0000000000      10.3923048454       1.0666666667
H       21.0000000000      10.3923048454       1.0666666667
H        6.5000000000      11.2583302492       1.0666666667
H        7.5000000000      11.2583302492       1.0666666667
H        8.5000000000      11.2583302492       1.0666666667
H        9.5000000000      11.2583302492       1.0666666667
H       10.5000000000      11.2583302492       1.0666666667
H       11.5000000000      11.2583302492       1.0666666667
H       12.5000000000      11.2583302492       1.0666666667
H       13.5000000000      11.2583302492       1.0666666667
H       14.5000000000      11.2583302492       1.0666666667
H       15.5000000000      11.2583302492       1.0666666667
H       16.5000000000      11.2583302492       1.0666666667
H       17.5000000000      11.2583302492       1.0666666667
H       18.5000000000      11.2583302492       1.0666666667
H       19.5000000000      11.2583302492       1.0666666667
H       20.5000000000      11.2583302492       1.0666666667
H       21.5000000000      11.2583302492       1.0666666667
H        7.0000000000      12.1243556530       1.0666666667
H        8.0000000000      12.1243556530       1.0666666667
H        9.0000000000      12.1243556530       1.0666666667
H       10.0000000000      12.1243556530       1.0666666667
H       11.0000000000      12.1243556530       1.0666666667
H       12.0000000000      12.1243556530       1.0666666667
H       13.0000000000      12.1243556530       1.0666666667
H       14.0000000000      12.1243556530       1.0666666667
H       15.0000000000      12.1243556530       1.0666666667
H       16.0000000000      12.1243556530       1.0666666667
H       17.0000000000      12.1243556530       1.0666666667
H       18.0000000000      12.1243556530       1.0666666667
H       19.0000000000      12.1243556530       1.0666666667
H       20.0000000000      12.1243556530       1.0666666667
H       21.0000000000      12.1243556530       1.0666666667
H       22.0000000000      12.1243556530       1.0666666667