MOLECULE
PRIMVEC
     16.0000000000       0.0000000000       0.0000000000
      8.0000000000      13.8564064606       0.0000000000
      0.0000000000       0.0000000000      32.0000000000
PRIMCOORD
    3375        1
X        0.0000000000       0.0000000000       0.0000000000
X        0.3926990817      -0.2267249205       0.0000000000
X        0.7853981634      -0.4534498411       0.0000000000
X        1.1780972451      -0.6801747616       0.0000000000
X        1.5707963268      -0.9068996821       0.0000000000
X        1.9634954085      -1.1336246026       0.0000000000
X        2.3561944902      -1.3603495232       0.0000000000
X        2.7488935719      -1.5870744437       0.0000000000
X       -2.7488935719       1.5870744437       0.0000000000
X       -2.3561944902       1.3603495232       0.0000000000
X       -1.9634954085       1.1336246026       0.0000000000
X       -1.5707963268       0.9068996821       0.0000000000
X       -1.1780972451       0.6801747616       0.0000000000
X       -0.7853981634       0.4534498411       0.0000000000
X       -0.3926990817       0.2267249205       0.0000000000
X        0.0000000000       0.4534498411       0.0000000000
X        0.3926990817       0.2267249205       0.0000000000
X        0.7853981634      -0.0000000000       0.0000000000
X        1.1780972451      -0.2267249205       0.0000000000
X        1.5707963268      -0.4534498411       0.0000000000
X        1.9634954085      -0.6801747616       0.0000000000
X        2.3561944902      -0.9068996821       0.0000000000
X        2.7488935719      -1.1336246026       0.0000000000
X       -2.7488935719       2.0405242848       0.0000000000
X       -2.3561944902       1.8137993642       0.0000000000
X       -1.9634954085       1.5870744437       0.0000000000
X       -1.5707963268       1.3603495232       0.0000000000
X       -1.1780972451       1.1336246026       0.0000000000
X       -0.7853981634       0.9068996821       0.0000000000
X       -0.3926990817       0.6801747616       0.0000000000
X        0.0000000000       0.9068996821       0.0000000000
X        0.3926990817       0.6801747616       0.0000000000
X        0.7853981634       0.4534498411       0.0000000000
X        1.1780972451       0.2267249205       0.0000000000
X        1.5707963268      -0.0000000000       0.0000000000
X        1.9634954085      -0.2267249205       0.0000000000
X        2.3561944902      -0.4534498411       0.0000000000
X        2.7488935719      -0.6801747616       0.0000000000
X       -2.7488935719       2.4939741258       0.0000000000
X       -2.3561944902       2.2672492053       0.0000000000
X       -1.9634954085       2.0405242848       0.0000000000
X       -1.5707963268       1.8137993642       0.0000000000
X       -1.1780972451       1.5870744437       0.0000000000
X       -0.7853981634       1.3603495232       0.0000000000
X       -0.3926990817       1.1336246026       0.0000000000
X        0.0000000000       1.3603495232       0.0000000000
X        0.3926990817       1.1336246026       0.0000000000
X        0.7853981634       0.9068996821       0.0000000000
X        1.1780972451       0.6801747616       0.0000000000
X        1.5707963268       0.4534498411       0.0000000000
X        1.9634954085       0.2267249205       0.0000000000
X        2.3561944902      -0.0000000000       0.0000000000
X        2.7488935719      -0.2267249205       0.0000000000
X       -2.7488935719       2.9474239669       0.0000000000
X       -2.3561944902       2.7206990464       0.0000000000
X       -1.9634954085       2.4939741258       0.0000000000
X       -1.5707963268       2.2672492053       0.0000000000
X       -1.1780972451       2.0405242848       0.0000000000
X       -0.7853981634       1.8137993642       0.0000000000
X       -0.3926990817       1.5870744437       0.0000000000
X        0.0000000000       1.8137993642       0.0000000000
X        0.3926990817       1.5870744437       0.0000000000
X        0.7853981634       1.3603495232       0.0000000000
X        1.1780972451       1.1336246026       0.0000000000
X        1.5707963268       0.9068996821       0.0000000000
X        1.9634954085       0.6801747616       0.0000000000
X        2.3561944902       0.4534498411       0.0000000000
X        2.7488935719       0.2267249205       0.0000000000
X       -2.7488935719       3.4008738079       0.0000000000
X       -2.3561944902       3.1741488874       0.0000000000
X       -1.9634954085       2.9474239669       0.0000000000
X       -1.5707963268       2.7206990464       0.0000000000
X       -1.1780972451       2.4939741258       0.0000000000
X       -0.7853981634       2.2672492053       0.0000000000
X       -0.3926990817       2.0405242848       0.0000000000
X        0.0000000000       2.2672492053       0.0000000000
X        0.3926990817       2.0405242848       0.0000000000
X        0.7853981634       1.8137993642       0.0000000000
X        1.1780972451       1.5870744437       0.0000000000
X        1.5707963268       1.3603495232       0.0000000000
X        1.9634954085       1.1336246026       0.0000000000
X        2.3561944902       0.9068996821       0.0000000000
X        2.7488935719       0.6801747616       0.0000000000
X       -2.7488935719       3.8543236490       0.0000000000
X       -2.3561944902       3.6275987285       0.0000000000
X       -1.9634954085       3.4008738079       0.0000000000
X       -1.5707963268       3.1741488874       0.0000000000
X       -1.1780972451       2.9474239669       0.0000000000
X       -0.7853981634       2.7206990464       0.0000000000
X       -0.3926990817       2.4939741258       0.0000000000
X        0.0000000000       2.7206990464       0.0000000000
X        0.3926990817       2.4939741258       0.0000000000
X        0.7853981634       2.2672492053       0.0000000000
X        1.1780972451       2.0405242848       0.0000000000
X        1.5707963268       1.8137993642       0.0000000000
X        1.9634954085       1.5870744437       0.0000000000
X        2.3561944902       1.3603495232       0.0000000000
X        2.7488935719       1.1336246026       0.0000000000
X       -2.7488935719       4.3077734901       0.0000000000
X       -2.3561944902       4.0810485695       0.0000000000
X       -1.9634954085       3.8543236490       0.0000000000
X       -1.5707963268       3.6275987285       0.0000000000
X       -1.1780972451       3.4008738079       0.0000000000
X       -0.7853981634       3.1741488874       0.0000000000
X       -0.3926990817       2.9474239669       0.0000000000
X        0.0000000000       3.1741488874       0.0000000000
X        0.3926990817       2.9474239669       0.0000000000
X        0.7853981634       2.7206990464       0.0000000000
X        1.1780972451       2.4939741258       0.0000000000
X        1.5707963268       2.2672492053       0.0000000000
X        1.9634954085       2.0405242848       0.0000000000
X        2.3561944902       1.8137993642       0.0000000000
X        2.7488935719       1.5870744437       0.0000000000
X       -2.7488935719       4.7612233311       0.0000000000
X       -2.3561944902       4.5344984106       0.0000000000
X       -1.9634954085       4.3077734901       0.0000000000
X       -1.5707963268       4.0810485695       0.0000000000
X       -1.1780972451       3.8543236490       0.0000000000
X       -0.7853981634       3.6275987285       0.0000000000
X       -0.3926990817       3.4008738079       0.0000000000
X        0.0000000000      -3.1741488874       0.0000000000
X        0.3926990817      -3.4008738079       0.0000000000
X        0.7853981634      -3.6275987285       0.0000000000
X        1.1780972451      -3.8543236490       0.0000000000
X        1.5707963268      -4.0810485695       0.0000000000
X        1.9634954085      -4.3077734901       0.0000000000
X        2.3561944902      -4.5344984106       0.0000000000
X        2.7488935719      -4.7612233311       0.0000000000
X       -2.7488935719      -1.5870744437       0.0000000000
X       -2.3561944902      -1.8137993642       0.0000000000
X       -1.9634954085      -2.0405242848       0.0000000000
X       -1.5707963268      -2.2672492053       0.0000000000
X       -1.1780972451      -2.4939741258       0.0000000000
X       -0.7853981634      -2.7206990464       0.0000000000
X       -0.3926990817      -2.9474239669       0.0000000000
X        0.0000000000      -2.7206990464       0.0000000000
X        0.3926990817      -2.9474239669       0.0000000000
X        0.7853981634      -3.1741488874       0.0000000000
X        1.1780972451      -3.4008738079       0.0000000000
X        1.5707963268      -3.6275987285       0.0000000000
X        1.9634954085      -3.8543236490       0.0000000000
X        2.3561944902      -4.0810485695       0.0000000000
X        2.7488935719      -4.3077734901       0.0000000000
X       -2.7488935719      -1.1336246026       0.0000000000
X       -2.3561944902      -1.3603495232       0.0000000000
X       -1.9634954085      -1.5870744437       0.0000000000
X       -1.5707963268      -1.8137993642       0.0000000000
X       -1.1780972451      -2.0405242848       0.0000000000
X       -0.7853981634      -2.2672492053       0.0000000000
X       -0.3926990817      -2.4939741258       0.0000000000
X        0.0000000000      -2.2672492053       0.0000000000
X        0.3926990817      -2.4939741258       0.0000000000
X        0.7853981634      -2.7206990464       0.0000000000
X        1.1780972451      -2.9474239669       0.0000000000
X        1.5707963268      -3.1741488874       0.0000000000
X        1.9634954085      -3.4008738079       0.0000000000
X        2.3561944902      -3.6275987285       0.0000000000
X        2.7488935719      -3.8543236490       0.0000000000
X       -2.7488935719      -0.6801747616       0.0000000000
X       -2.3561944902      -0.9068996821       0.0000000000
X       -1.9634954085      -1.1336246026       0.0000000000
X       -1.5707963268      -1.3603495232       0.0000000000
X       -1.1780972451      -1.5870744437       0.0000000000
X       -0.7853981634      -1.8137993642       0.0000000000
X       -0.3926990817      -2.0405242848       0.0000000000
X        0.0000000000      -1.8137993642       0.0000000000
X        0.3926990817      -2.0405242848       0.0000000000
X        0.7853981634      -2.2672492053       0.0000000000
X        1.1780972451      -2.4939741258       0.0000000000
X        1.5707963268      -2.7206990464       0.0000000000
X        1.9634954085      -2.9474239669       0.0000000000
X        2.3561944902      -3.1741488874       0.0000000000
X        2.7488935719      -3.4008738079       0.0000000000
X       -2.7488935719      -0.2267249205       0.0000000000
X       -2.3561944902      -0.4534498411       0.0000000000
X       -1.9634954085      -0.6801747616       0.0000000000
X       -1.5707963268      -0.9068996821       0.0000000000
X       -1.1780972451      -1.1336246026       0.0000000000
X       -0.7853981634      -1.3603495232       0.0000000000
X       -0.3926990817      -1.5870744437       0.0000000000
X        0.0000000000      -1.3603495232       0.0000000000
X        0.3926990817      -1.5870744437       0.0000000000
X        0.7853981634      -1.8137993642       0.0000000000
X        1.1780972451      -2.0405242848       0.0000000000
X        1.5707963268      -2.2672492053       0.0000000000
X        1.9634954085      -2.4939741258       0.0000000000
X        2.3561944902      -2.7206990464       0.0000000000
X        2.7488935719      -2.9474239669       0.0000000000
X       -2.7488935719       0.2267249205       0.0000000000
X       -2.3561944902       0.0000000000       0.0000000000
X       -1.9634954085      -0.2267249205       0.0000000000
X       -1.5707963268      -0.4534498411       0.0000000000
X       -1.1780972451      -0.6801747616       0.0000000000
X       -0.7853981634      -0.9068996821       0.0000000000
X       -0.3926990817      -1.1336246026       0.0000000000
X        0.0000000000      -0.9068996821       0.0000000000
X        0.3926990817      -1.1336246026       0.0000000000
X        0.7853981634      -1.3603495232       0.0000000000
X        1.1780972451      -1.5870744437       0.0000000000
X        1.5707963268      -1.8137993642       0.0000000000
X        1.9634954085      -2.0405242848       0.0000000000
X        2.3561944902      -2.2672492053       0.0000000000
X        2.7488935719      -2.4939741258       0.0000000000
X       -2.7488935719       0.6801747616       0.0000000000
X       -2.3561944902       0.4534498411       0.0000000000
X       -1.9634954085       0.2267249205       0.0000000000
X       -1.5707963268       0.0000000000       0.0000000000
X       -1.1780972451      -0.2267249205       0.0000000000
X       -0.7853981634      -0.4534498411       0.0000000000
X       -0.3926990817      -0.6801747616       0.0000000000
X        0.0000000000      -0.4534498411       0.0000000000
X        0.3926990817      -0.6801747616       0.0000000000
X        0.7853981634      -0.9068996821       0.0000000000
X        1.1780972451      -1.1336246026       0.0000000000
X        1.5707963268      -1.3603495232       0.0000000000
X        1.9634954085      -1.5870744437       0.0000000000
X        2.3561944902      -1.8137993642       0.0000000000
X        2.7488935719      -2.0405242848       0.0000000000
X       -2.7488935719       1.1336246026       0.0000000000
X       -2.3561944902       0.9068996821       0.0000000000
X       -1.9634954085       0.6801747616       0.0000000000
X       -1.5707963268       0.4534498411       0.0000000000
X       -1.1780972451       0.2267249205       0.0000000000
X       -0.7853981634       0.0000000000       0.0000000000
X       -0.3926990817      -0.2267249205       0.0000000000
X        0.0000000000       0.0000000000       0.1963495408
X        0.3926990817      -0.2267249205       0.1963495408
X        0.7853981634      -0.4534498411       0.1963495408
X        1.1780972451      -0.6801747616       0.1963495408
X        1.5707963268      -0.9068996821       0.1963495408
X        1.9634954085      -1.1336246026       0.1963495408
X        2.3561944902      -1.3603495232       0.1963495408
X        2.7488935719      -1.5870744437       0.1963495408
X       -2.7488935719       1.5870744437       0.1963495408
X       -2.3561944902       1.3603495232       0.1963495408
X       -1.9634954085       1.1336246026       0.1963495408
X       -1.5707963268       0.9068996821       0.1963495408
X       -1.1780972451       0.6801747616       0.1963495408
X       -0.7853981634       0.4534498411       0.1963495408
X       -0.3926990817       0.2267249205       0.1963495408
X        0.0000000000       0.4534498411       0.1963495408
X        0.3926990817       0.2267249205       0.1963495408
X        0.7853981634      -0.0000000000       0.1963495408
X        1.1780972451      -0.2267249205       0.1963495408
X        1.5707963268      -0.4534498411       0.1963495408
X        1.9634954085      -0.6801747616       0.1963495408
X        2.3561944902      -0.9068996821       0.1963495408
X        2.7488935719      -1.1336246026       0.1963495408
X       -2.7488935719       2.0405242848       0.1963495408
X       -2.3561944902       1.8137993642       0.1963495408
X       -1.9634954085       1.5870744437       0.1963495408
X       -1.5707963268       1.3603495232       0.1963495408
X       -1.1780972451       1.1336246026       0.1963495408
X       -0.7853981634       0.9068996821       0.1963495408
X       -0.3926990817       0.6801747616       0.1963495408
X        0.0000000000       0.9068996821       0.1963495408
X        0.3926990817       0.6801747616       0.1963495408
X        0.7853981634       0.4534498411       0.1963495408
X        1.1780972451       0.2267249205       0.1963495408
X        1.5707963268      -0.0000000000       0.1963495408
X        1.9634954085      -0.2267249205       0.1963495408
X        2.3561944902      -0.4534498411       0.1963495408
X        2.7488935719      -0.6801747616       0.1963495408
X       -2.7488935719       2.4939741258       0.1963495408
X       -2.3561944902       2.2672492053       0.1963495408
X       -1.9634954085       2.0405242848       0.1963495408
X       -1.5707963268       1.8137993642       0.1963495408
X       -1.1780972451       1.5870744437       0.1963495408
X       -0.7853981634       1.3603495232       0.1963495408
X       -0.3926990817       1.1336246026       0.1963495408
X        0.0000000000       1.3603495232       0.1963495408
X        0.3926990817       1.1336246026       0.1963495408
X        0.7853981634       0.9068996821       0.1963495408
X        1.1780972451       0.6801747616       0.1963495408
X        1.5707963268       0.4534498411       0.1963495408
X        1.9634954085       0.2267249205       0.1963495408
X        2.3561944902      -0.0000000000       0.1963495408
X        2.7488935719      -0.2267249205       0.1963495408
X       -2.7488935719       2.9474239669       0.1963495408
X       -2.3561944902       2.7206990464       0.1963495408
X       -1.9634954085       2.4939741258       0.1963495408
X       -1.5707963268       2.2672492053       0.1963495408
X       -1.1780972451       2.0405242848       0.1963495408
X       -0.7853981634       1.8137993642       0.1963495408
X       -0.3926990817       1.5870744437       0.1963495408
X        0.0000000000       1.8137993642       0.1963495408
X        0.3926990817       1.5870744437       0.1963495408
X        0.7853981634       1.3603495232       0.1963495408
X        1.1780972451       1.1336246026       0.1963495408
X        1.5707963268       0.9068996821       0.1963495408
X        1.9634954085       0.6801747616       0.1963495408
X        2.3561944902       0.4534498411       0.1963495408
X        2.7488935719       0.2267249205       0.1963495408
X       -2.7488935719       3.4008738079       0.1963495408
X       -2.3561944902       3.1741488874       0.1963495408
X       -1.9634954085       2.9474239669       0.1963495408
X       -1.5707963268       2.7206990464       0.1963495408
X       -1.1780972451       2.4939741258       0.1963495408
X       -0.7853981634       2.2672492053       0.1963495408
X       -0.3926990817       2.0405242848       0.1963495408
X        0.0000000000       2.2672492053       0.1963495408
X        0.3926990817       2.0405242848       0.1963495408
X        0.7853981634       1.8137993642       0.1963495408
X        1.1780972451       1.5870744437       0.1963495408
X        1.5707963268       1.3603495232       0.1963495408
X        1.9634954085       1.1336246026       0.1963495408
X        2.3561944902       0.9068996821       0.1963495408
X        2.7488935719       0.6801747616       0.1963495408
X       -2.7488935719       3.8543236490       0.1963495408
X       -2.3561944902       3.6275987285       0.1963495408
X       -1.9634954085       3.4008738079       0.1963495408
X       -1.5707963268       3.1741488874       0.1963495408
X       -1.1780972451       2.9474239669       0.1963495408
X       -0.7853981634       2.7206990464       0.1963495408
X       -0.3926990817       2.4939741258       0.1963495408
X        0.0000000000       2.7206990464       0.1963495408
X        0.3926990817       2.4939741258       0.1963495408
X        0.7853981634       2.2672492053       0.1963495408
X        1.1780972451       2.0405242848       0.1963495408
X        1.5707963268       1.8137993642       0.1963495408
X        1.9634954085       1.5870744437       0.1963495408
X        2.3561944902       1.3603495232       0.1963495408
X        2.7488935719       1.1336246026       0.1963495408
X       -2.7488935719       4.3077734901       0.1963495408
X       -2.3561944902       4.0810485695       0.1963495408
X       -1.9634954085       3.8543236490       0.1963495408
X       -1.5707963268       3.6275987285       0.1963495408
X       -1.1780972451       3.4008738079       0.1963495408
X       -0.7853981634       3.1741488874       0.1963495408
X       -0.3926990817       2.9474239669       0.1963495408
X        0.0000000000       3.1741488874       0.1963495408
X        0.3926990817       2.9474239669       0.1963495408
X        0.7853981634       2.7206990464       0.1963495408
X        1.1780972451       2.4939741258       0.1963495408
X        1.5707963268       2.2672492053       0.1963495408
X        1.9634954085       2.0405242848       0.1963495408
X        2.3561944902       1.8137993642       0.1963495408
X        2.7488935719       1.5870744437       0.1963495408
X       -2.7488935719       4.7612233311       0.1963495408
X       -2.3561944902       4.5344984106       0.1963495408
X       -1.9634954085       4.3077734901       0.1963495408
X       -1.5707963268       4.0810485695       0.1963495408
X       -1.1780972451       3.8543236490       0.1963495408
X       -0.7853981634       3.6275987285       0.1963495408
X       -0.3926990817       3.4008738079       0.1963495408
X        0.0000000000      -3.1741488874       0.1963495408
X        0.3926990817      -3.4008738079       0.1963495408
X        0.7853981634      -3.6275987285       0.1963495408
X        1.1780972451      -3.8543236490       0.1963495408
X        1.5707963268      -4.0810485695       0.1963495408
X        1.9634954085      -4.3077734901       0.1963495408
X        2.3561944902      -4.5344984106       0.1963495408
X        2.7488935719      -4.7612233311       0.1963495408
X       -2.7488935719      -1.5870744437       0.1963495408
X       -2.3561944902      -1.8137993642       0.1963495408
X       -1.9634954085      -2.0405242848       0.1963495408
X       -1.5707963268      -2.2672492053       0.1963495408
X       -1.1780972451      -2.4939741258       0.1963495408
X       -0.7853981634      -2.7206990464       0.1963495408
X       -0.3926990817      -2.9474239669       0.1963495408
X        0.0000000000      -2.7206990464       0.1963495408
X        0.3926990817      -2.9474239669       0.1963495408
X        0.7853981634      -3.1741488874       0.1963495408
X        1.1780972451      -3.4008738079       0.1963495408
X        1.5707963268      -3.6275987285       0.1963495408
X        1.9634954085      -3.8543236490       0.1963495408
X        2.3561944902      -4.0810485695       0.1963495408
X        2.7488935719      -4.3077734901       0.1963495408
X       -2.7488935719      -1.1336246026       0.1963495408
X       -2.3561944902      -1.3603495232       0.1963495408
X       -1.9634954085      -1.5870744437       0.1963495408
X       -1.5707963268      -1.8137993642       0.1963495408
X       -1.1780972451      -2.0405242848       0.1963495408
X       -0.7853981634      -2.2672492053       0.1963495408
X       -0.3926990817      -2.4939741258       0.1963495408
X        0.0000000000      -2.2672492053       0.1963495408
X        0.3926990817      -2.4939741258       0.1963495408
X        0.7853981634      -2.7206990464       0.1963495408
X        1.1780972451      -2.9474239669       0.1963495408
X        1.5707963268      -3.1741488874       0.1963495408
X        1.9634954085      -3.4008738079       0.1963495408
X        2.3561944902      -3.6275987285       0.1963495408
X        2.7488935719      -3.8543236490       0.1963495408
X       -2.7488935719      -0.6801747616       0.1963495408
X       -2.3561944902      -0.9068996821       0.1963495408
X       -1.9634954085      -1.1336246026       0.1963495408
X       -1.5707963268      -1.3603495232       0.1963495408
X       -1.1780972451      -1.5870744437       0.1963495408
X       -0.7853981634      -1.8137993642       0.1963495408
X       -0.3926990817      -2.0405242848       0.1963495408
X        0.0000000000      -1.8137993642       0.1963495408
X        0.3926990817      -2.0405242848       0.1963495408
X        0.7853981634      -2.2672492053       0.1963495408
X        1.1780972451      -2.4939741258       0.1963495408
X        1.5707963268      -2.7206990464       0.1963495408
X        1.9634954085      -2.9474239669       0.1963495408
X        2.3561944902      -3.1741488874       0.1963495408
X        2.7488935719      -3.4008738079       0.1963495408
X       -2.7488935719      -0.2267249205       0.1963495408
X       -2.3561944902      -0.4534498411       0.1963495408
X       -1.9634954085      -0.6801747616       0.1963495408
X       -1.5707963268      -0.9068996821       0.1963495408
X       -1.1780972451      -1.1336246026       0.1963495408
X       -0.7853981634      -1.3603495232       0.1963495408
X       -0.3926990817      -1.5870744437       0.1963495408
X        0.0000000000      -1.3603495232       0.1963495408
X        0.3926990817      -1.5870744437       0.1963495408
X        0.7853981634      -1.8137993642       0.1963495408
X        1.1780972451      -2.0405242848       0.1963495408
X        1.5707963268      -2.2672492053       0.1963495408
X        1.9634954085      -2.4939741258       0.1963495408
X        2.3561944902      -2.7206990464       0.1963495408
X        2.7488935719      -2.9474239669       0.1963495408
X       -2.7488935719       0.2267249205       0.1963495408
X       -2.3561944902       0.0000000000       0.1963495408
X       -1.9634954085      -0.2267249205       0.1963495408
X       -1.5707963268      -0.4534498411       0.1963495408
X       -1.1780972451      -0.6801747616       0.1963495408
X       -0.7853981634      -0.9068996821       0.1963495408
X       -0.3926990817      -1.1336246026       0.1963495408
X        0.0000000000      -0.9068996821       0.1963495408
X        0.3926990817      -1.1336246026       0.1963495408
X        0.7853981634      -1.3603495232       0.1963495408
X        1.1780972451      -1.5870744437       0.1963495408
X        1.5707963268      -1.8137993642       0.1963495408
X        1.9634954085      -2.0405242848       0.1963495408
X        2.3561944902      -2.2672492053       0.1963495408
X        2.7488935719      -2.4939741258       0.1963495408
X       -2.7488935719       0.6801747616       0.1963495408
X       -2.3561944902       0.4534498411       0.1963495408
X       -1.9634954085       0.2267249205       0.1963495408
X       -1.5707963268       0.0000000000       0.1963495408
X       -1.1780972451      -0.2267249205       0.1963495408
X       -0.7853981634      -0.4534498411       0.1963495408
X       -0.3926990817      -0.6801747616       0.1963495408
X        0.0000000000      -0.4534498411       0.1963495408
X        0.3926990817      -0.6801747616       0.1963495408
X        0.7853981634      -0.9068996821       0.1963495408
X        1.1780972451      -1.1336246026       0.1963495408
X        1.5707963268      -1.3603495232       0.1963495408
X        1.9634954085      -1.5870744437       0.1963495408
X        2.3561944902      -1.8137993642       0.1963495408
X        2.7488935719      -2.0405242848       0.1963495408
X       -2.7488935719       1.1336246026       0.1963495408
X       -2.3561944902       0.9068996821       0.1963495408
X       -1.9634954085       0.6801747616       0.1963495408
X       -1.5707963268       0.4534498411       0.1963495408
X       -1.1780972451       0.2267249205       0.1963495408
X       -0.7853981634       0.0000000000       0.1963495408
X       -0.3926990817      -0.2267249205       0.1963495408
X        0.0000000000       0.0000000000       0.3926990817
X        0.3926990817      -0.2267249205       0.3926990817
X        0.7853981634      -0.4534498411       0.3926990817
X        1.1780972451      -0.6801747616       0.3926990817
X        1.5707963268      -0.9068996821       0.3926990817
X        1.9634954085      -1.1336246026       0.3926990817
X        2.3561944902      -1.3603495232       0.3926990817
X        2.7488935719      -1.5870744437       0.3926990817
X       -2.7488935719       1.5870744437       0.3926990817
X       -2.3561944902       1.3603495232       0.3926990817
X       -1.9634954085       1.1336246026       0.3926990817
X       -1.5707963268       0.9068996821       0.3926990817
X       -1.1780972451       0.6801747616       0.3926990817
X       -0.7853981634       0.4534498411       0.3926990817
X       -0.3926990817       0.2267249205       0.3926990817
X        0.0000000000       0.4534498411       0.3926990817
X        0.3926990817       0.2267249205       0.3926990817
X        0.7853981634      -0.0000000000       0.3926990817
X        1.1780972451      -0.2267249205       0.3926990817
X        1.5707963268      -0.4534498411       0.3926990817
X        1.9634954085      -0.6801747616       0.3926990817
X        2.3561944902      -0.9068996821       0.3926990817
X        2.7488935719      -1.1336246026       0.3926990817
X       -2.7488935719       2.0405242848       0.3926990817
X       -2.3561944902       1.8137993642       0.3926990817
X       -1.9634954085       1.5870744437       0.3926990817
X       -1.5707963268       1.3603495232       0.3926990817
X       -1.1780972451       1.1336246026       0.3926990817
X       -0.7853981634       0.9068996821       0.3926990817
X       -0.3926990817       0.6801747616       0.3926990817
X        0.0000000000       0.9068996821       0.3926990817
X        0.3926990817       0.6801747616       0.3926990817
X        0.7853981634       0.4534498411       0.3926990817
X        1.1780972451       0.2267249205       0.3926990817
X        1.5707963268      -0.0000000000       0.3926990817
X        1.9634954085      -0.2267249205       0.3926990817
X        2.3561944902      -0.4534498411       0.3926990817
X        2.7488935719      -0.6801747616       0.3926990817
X       -2.7488935719       2.4939741258       0.3926990817
X       -2.3561944902       2.2672492053       0.3926990817
X       -1.9634954085       2.0405242848       0.3926990817
X       -1.5707963268       1.8137993642       0.3926990817
X       -1.1780972451       1.5870744437       0.3926990817
X       -0.7853981634       1.3603495232       0.3926990817
X       -0.3926990817       1.1336246026       0.3926990817
X        0.0000000000       1.3603495232       0.3926990817