MOLECULE
PRIMVEC
     10.0000000000       0.0000000000       0.0000000000
      5.0000000000       8.6602540378       0.0000000000
      0.0000000000       0.0000000000      20.0000000000
PRIMCOORD
    2000        1
X        0.0000000000       0.0000000000       0.0000000000
X        0.6283185307      -0.3627598728       0.0000000000
X        1.2566370614      -0.7255197457       0.0000000000
X        1.8849555922      -1.0882796185       0.0000000000
X        2.5132741229      -1.4510394914       0.0000000000
X        3.1415926536      -1.8137993642       0.0000000000
X       -2.5132741229       1.4510394914       0.0000000000
X       -1.8849555922       1.0882796185       0.0000000000
X       -1.2566370614       0.7255197457       0.0000000000
X       -0.6283185307       0.3627598728       0.0000000000
X        0.0000000000       0.7255197457       0.0000000000
X        0.6283185307       0.3627598728       0.0000000000
X        1.2566370614      -0.0000000000       0.0000000000
X        1.8849555922      -0.3627598728       0.0000000000
X        2.5132741229      -0.7255197457       0.0000000000
X        3.1415926536      -1.0882796185       0.0000000000
X       -2.5132741229       2.1765592371       0.0000000000
X       -1.8849555922       1.8137993642       0.0000000000
X       -1.2566370614       1.4510394914       0.0000000000
X       -0.6283185307       1.0882796185       0.0000000000
X        0.0000000000       1.4510394914       0.0000000000
X        0.6283185307       1.0882796185       0.0000000000
X        1.2566370614       0.7255197457       0.0000000000
X        1.8849555922       0.3627598728       0.0000000000
X        2.5132741229      -0.0000000000       0.0000000000
X        3.1415926536      -0.3627598728       0.0000000000
X       -2.5132741229       2.9020789828       0.0000000000
X       -1.8849555922       2.5393191099       0.0000000000
X       -1.2566370614       2.1765592371       0.0000000000
X       -0.6283185307       1.8137993642       0.0000000000
X        0.0000000000       2.1765592371       0.0000000000
X        0.6283185307       1.8137993642       0.0000000000
X        1.2566370614       1.4510394914       0.0000000000
X        1.8849555922       1.0882796185       0.0000000000
X        2.5132741229       0.7255197457       0.0000000000
X        3.1415926536       0.3627598728       0.0000000000
X       -2.5132741229       3.6275987285       0.0000000000
X       -1.8849555922       3.2648388556       0.0000000000
X       -1.2566370614       2.9020789828       0.0000000000
X       -0.6283185307       2.5393191099       0.0000000000
X        0.0000000000       2.9020789828       0.0000000000
X        0.6283185307       2.5393191099       0.0000000000
X        1.2566370614       2.1765592371       0.0000000000
X        1.8849555922       1.8137993642       0.0000000000
X        2.5132741229       1.4510394914       0.0000000000
X        3.1415926536       1.0882796185       0.0000000000
X       -2.5132741229       4.3531184742       0.0000000000
X       -1.8849555922       3.9903586013       0.0000000000
X       -1.2566370614       3.6275987285       0.0000000000
X       -0.6283185307       3.2648388556       0.0000000000
X        0.0000000000       3.6275987285       0.0000000000
X        0.6283185307       3.2648388556       0.0000000000
X        1.2566370614       2.9020789828       0.0000000000
X        1.8849555922       2.5393191099       0.0000000000
X        2.5132741229       2.1765592371       0.0000000000
X        3.1415926536       1.8137993642       0.0000000000
X       -2.5132741229       5.0786382199       0.0000000000
X       -1.8849555922       4.7158783470       0.0000000000
X       -1.2566370614       4.3531184742       0.0000000000
X       -0.6283185307       3.9903586013       0.0000000000
X        0.0000000000      -2.9020789828       0.0000000000
X        0.6283185307      -3.2648388556       0.0000000000
X        1.2566370614      -3.6275987285       0.0000000000
X        1.8849555922      -3.9903586013       0.0000000000
X        2.5132741229      -4.3531184742       0.0000000000
X        3.1415926536      -4.7158783470       0.0000000000
X       -2.5132741229      -1.4510394914       0.0000000000
X       -1.8849555922      -1.8137993642       0.0000000000
X       -1.2566370614      -2.1765592371       0.0000000000
X       -0.6283185307      -2.5393191099       0.0000000000
X        0.0000000000      -2.1765592371       0.0000000000
X        0.6283185307      -2.5393191099       0.0000000000
X        1.2566370614      -2.9020789828       0.0000000000
X        1.8849555922      -3.2648388556       0.0000000000
X        2.5132741229      -3.6275987285       0.0000000000
X        3.1415926536      -3.9903586013       0.0000000000
X       -2.5132741229      -0.7255197457       0.0000000000
X       -1.8849555922      -1.0882796185       0.0000000000
X       -1.2566370614      -1.4510394914       0.0000000000
X       -0.6283185307      -1.8137993642       0.0000000000
X        0.0000000000      -1.4510394914       0.0000000000
X        0.6283185307      -1.8137993642       0.0000000000
X        1.2566370614      -2.1765592371       0.0000000000
X        1.8849555922      -2.5393191099       0.0000000000
X        2.5132741229      -2.9020789828       0.0000000000
X        3.1415926536      -3.2648388556       0.0000000000
X       -2.5132741229       0.0000000000       0.0000000000
X       -1.8849555922      -0.3627598728       0.0000000000
X       -1.2566370614      -0.7255197457       0.0000000000
X       -0.6283185307      -1.0882796185       0.0000000000
X        0.0000000000      -0.7255197457       0.0000000000
X        0.6283185307      -1.0882796185       0.0000000000
X        1.2566370614      -1.4510394914       0.0000000000
X        1.8849555922      -1.8137993642       0.0000000000
X        2.5132741229      -2.1765592371       0.0000000000
X        3.1415926536      -2.5393191099       0.0000000000
X       -2.5132741229       0.7255197457       0.0000000000
X       -1.8849555922       0.3627598728       0.0000000000
X       -1.2566370614       0.0000000000       0.0000000000
X       -0.6283185307      -0.3627598728       0.0000000000
X        0.0000000000       0.0000000000       0.3141592654
X        0.6283185307      -0.3627598728       0.3141592654
X        1.2566370614      -0.7255197457       0.3141592654
X        1.8849555922      -1.0882796185       0.3141592654
X        2.5132741229      -1.4510394914       0.3141592654
X        3.1415926536      -1.8137993642       0.3141592654
X       -2.5132741229       1.4510394914       0.3141592654
X       -1.8849555922       1.0882796185       0.3141592654
X       -1.2566370614       0.7255197457       0.3141592654
X       -0.6283185307       0.3627598728       0.3141592654
X        0.0000000000       0.7255197457       0.3141592654
X        0.6283185307       0.3627598728       0.3141592654
X        1.2566370614      -0.0000000000       0.3141592654
X        1.8849555922      -0.3627598728       0.3141592654
X        2.5132741229      -0.7255197457       0.3141592654
X        3.1415926536      -1.0882796185       0.3141592654
X       -2.5132741229       2.1765592371       0.3141592654
X       -1.8849555922       1.8137993642       0.3141592654
X       -1.2566370614       1.4510394914       0.3141592654
X       -0.6283185307       1.0882796185       0.3141592654
X        0.0000000000       1.4510394914       0.3141592654
X        0.6283185307       1.0882796185       0.3141592654
X        1.2566370614       0.7255197457       0.3141592654
X        1.8849555922       0.3627598728       0.3141592654
X        2.5132741229      -0.0000000000       0.3141592654
X        3.1415926536      -0.3627598728       0.3141592654
X       -2.5132741229       2.9020789828       0.3141592654
X       -1.8849555922       2.5393191099       0.3141592654
X       -1.2566370614       2.1765592371       0.3141592654
X       -0.6283185307       1.8137993642       0.3141592654
X        0.0000000000       2.1765592371       0.3141592654
X        0.6283185307       1.8137993642       0.3141592654
X        1.2566370614       1.4510394914       0.3141592654
X        1.8849555922       1.0882796185       0.3141592654
X        2.5132741229       0.7255197457       0.3141592654
X        3.1415926536       0.3627598728       0.3141592654
X       -2.5132741229       3.6275987285       0.3141592654
X       -1.8849555922       3.2648388556       0.3141592654
X       -1.2566370614       2.9020789828       0.3141592654
X       -0.6283185307       2.5393191099       0.3141592654
X        0.0000000000       2.9020789828       0.3141592654
X        0.6283185307       2.5393191099       0.3141592654
X        1.2566370614       2.1765592371       0.3141592654
X        1.8849555922       1.8137993642       0.3141592654
X        2.5132741229       1.4510394914       0.3141592654
X        3.1415926536       1.0882796185       0.3141592654
X       -2.5132741229       4.3531184742       0.3141592654
X       -1.8849555922       3.9903586013       0.3141592654
X       -1.2566370614       3.6275987285       0.3141592654
X       -0.6283185307       3.2648388556       0.3141592654
X        0.0000000000       3.6275987285       0.3141592654
X        0.6283185307       3.2648388556       0.3141592654
X        1.2566370614       2.9020789828       0.3141592654
X        1.8849555922       2.5393191099       0.3141592654
X        2.5132741229       2.1765592371       0.3141592654
X        3.1415926536       1.8137993642       0.3141592654
X       -2.5132741229       5.0786382199       0.3141592654
X       -1.8849555922       4.7158783470       0.3141592654
X       -1.2566370614       4.3531184742       0.3141592654
X       -0.6283185307       3.9903586013       0.3141592654
X        0.0000000000      -2.9020789828       0.3141592654
X        0.6283185307      -3.2648388556       0.3141592654
X        1.2566370614      -3.6275987285       0.3141592654
X        1.8849555922      -3.9903586013       0.3141592654
X        2.5132741229      -4.3531184742       0.3141592654
X        3.1415926536      -4.7158783470       0.3141592654
X       -2.5132741229      -1.4510394914       0.3141592654
X       -1.8849555922      -1.8137993642       0.3141592654
X       -1.2566370614      -2.1765592371       0.3141592654
X       -0.6283185307      -2.5393191099       0.3141592654
X        0.0000000000      -2.1765592371       0.3141592654
X        0.6283185307      -2.5393191099       0.3141592654
X        1.2566370614      -2.9020789828       0.3141592654
X        1.8849555922      -3.2648388556       0.3141592654
X        2.5132741229      -3.6275987285       0.3141592654
X        3.1415926536      -3.9903586013       0.3141592654
X       -2.5132741229      -0.7255197457       0.3141592654
X       -1.8849555922      -1.0882796185       0.3141592654
X       -1.2566370614      -1.4510394914       0.3141592654
X       -0.6283185307      -1.8137993642       0.3141592654
X        0.0000000000      -1.4510394914       0.3141592654
X        0.6283185307      -1.8137993642       0.3141592654
X        1.2566370614      -2.1765592371       0.3141592654
X        1.8849555922      -2.5393191099       0.3141592654
X        2.5132741229      -2.9020789828       0.3141592654
X        3.1415926536      -3.2648388556       0.3141592654
X       -2.5132741229       0.0000000000       0.3141592654
X       -1.8849555922      -0.3627598728       0.3141592654
X       -1.2566370614      -0.7255197457       0.3141592654
X       -0.6283185307      -1.0882796185       0.3141592654
X        0.0000000000      -0.7255197457       0.3141592654
X        0.6283185307      -1.0882796185       0.3141592654
X        1.2566370614      -1.4510394914       0.3141592654
X        1.8849555922      -1.8137993642       0.3141592654
X        2.5132741229      -2.1765592371       0.3141592654
X        3.1415926536      -2.5393191099       0.3141592654
X       -2.5132741229       0.7255197457       0.3141592654
X       -1.8849555922       0.3627598728       0.3141592654
X       -1.2566370614       0.0000000000       0.3141592654
X       -0.6283185307      -0.3627598728       0.3141592654
X        0.0000000000       0.0000000000       0.6283185307
X        0.6283185307      -0.3627598728       0.6283185307
X        1.2566370614      -0.7255197457       0.6283185307
X        1.8849555922      -1.0882796185       0.6283185307
X        2.5132741229      -1.4510394914       0.6283185307
X        3.1415926536      -1.8137993642       0.6283185307
X       -2.5132741229       1.4510394914       0.6283185307
X       -1.8849555922       1.0882796185       0.6283185307
X       -1.2566370614       0.7255197457       0.6283185307
X       -0.6283185307       0.3627598728       0.6283185307
X        0.0000000000       0.7255197457       0.6283185307
X        0.6283185307       0.3627598728       0.6283185307
X        1.2566370614      -0.0000000000       0.6283185307
X        1.8849555922      -0.3627598728       0.6283185307
X        2.5132741229      -0.7255197457       0.6283185307
X        3.1415926536      -1.0882796185       0.6283185307
X       -2.5132741229       2.1765592371       0.6283185307
X       -1.8849555922       1.8137993642       0.6283185307
X       -1.2566370614       1.4510394914       0.6283185307
X       -0.6283185307       1.0882796185       0.6283185307
X        0.0000000000       1.4510394914       0.6283185307
X        0.6283185307       1.0882796185       0.6283185307
X        1.2566370614       0.7255197457       0.6283185307
X        1.8849555922       0.3627598728       0.6283185307
X        2.5132741229      -0.0000000000       0.6283185307
X        3.1415926536      -0.3627598728       0.6283185307
X       -2.5132741229       2.9020789828       0.6283185307
X       -1.8849555922       2.5393191099       0.6283185307
X       -1.2566370614       2.1765592371       0.6283185307
X       -0.6283185307       1.8137993642       0.6283185307
X        0.0000000000       2.1765592371       0.6283185307
X        0.6283185307       1.8137993642       0.6283185307
X        1.2566370614       1.4510394914       0.6283185307
X        1.8849555922       1.0882796185       0.6283185307
X        2.5132741229       0.7255197457       0.6283185307
X        3.1415926536       0.3627598728       0.6283185307
X       -2.5132741229       3.6275987285       0.6283185307
X       -1.8849555922       3.2648388556       0.6283185307
X       -1.2566370614       2.9020789828       0.6283185307
X       -0.6283185307       2.5393191099       0.6283185307
X        0.0000000000       2.9020789828       0.6283185307
X        0.6283185307       2.5393191099       0.6283185307
X        1.2566370614       2.1765592371       0.6283185307
X        1.8849555922       1.8137993642       0.6283185307
X        2.5132741229       1.4510394914       0.6283185307
X        3.1415926536       1.0882796185       0.6283185307
X       -2.5132741229       4.3531184742       0.6283185307
X       -1.8849555922       3.9903586013       0.6283185307
X       -1.2566370614       3.6275987285       0.6283185307
X       -0.6283185307       3.2648388556       0.6283185307
X        0.0000000000       3.6275987285       0.6283185307
X        0.6283185307       3.2648388556       0.6283185307
X        1.2566370614       2.9020789828       0.6283185307
X        1.8849555922       2.5393191099       0.6283185307
X        2.5132741229       2.1765592371       0.6283185307
X        3.1415926536       1.8137993642       0.6283185307
X       -2.5132741229       5.0786382199       0.6283185307
X       -1.8849555922       4.7158783470       0.6283185307
X       -1.2566370614       4.3531184742       0.6283185307
X       -0.6283185307       3.9903586013       0.6283185307
X        0.0000000000      -2.9020789828       0.6283185307
X        0.6283185307      -3.2648388556       0.6283185307
X        1.2566370614      -3.6275987285       0.6283185307
X        1.8849555922      -3.9903586013       0.6283185307
X        2.5132741229      -4.3531184742       0.6283185307
X        3.1415926536      -4.7158783470       0.6283185307
X       -2.5132741229      -1.4510394914       0.6283185307
X       -1.8849555922      -1.8137993642       0.6283185307
X       -1.2566370614      -2.1765592371       0.6283185307
X       -0.6283185307      -2.5393191099       0.6283185307
X        0.0000000000      -2.1765592371       0.6283185307
X        0.6283185307      -2.5393191099       0.6283185307
X        1.2566370614      -2.9020789828       0.6283185307
X        1.8849555922      -3.2648388556       0.6283185307
X        2.5132741229      -3.6275987285       0.6283185307
X        3.1415926536      -3.9903586013       0.6283185307
X       -2.5132741229      -0.7255197457       0.6283185307
X       -1.8849555922      -1.0882796185       0.6283185307
X       -1.2566370614      -1.4510394914       0.6283185307
X       -0.6283185307      -1.8137993642       0.6283185307
X        0.0000000000      -1.4510394914       0.6283185307
X        0.6283185307      -1.8137993642       0.6283185307
X        1.2566370614      -2.1765592371       0.6283185307
X        1.8849555922      -2.5393191099       0.6283185307
X        2.5132741229      -2.9020789828       0.6283185307
X        3.1415926536      -3.2648388556       0.6283185307
X       -2.5132741229       0.0000000000       0.6283185307
X       -1.8849555922      -0.3627598728       0.6283185307
X       -1.2566370614      -0.7255197457       0.6283185307
X       -0.6283185307      -1.0882796185       0.6283185307
X        0.0000000000      -0.7255197457       0.6283185307
X        0.6283185307      -1.0882796185       0.6283185307
X        1.2566370614      -1.4510394914       0.6283185307
X        1.8849555922      -1.8137993642       0.6283185307
X        2.5132741229      -2.1765592371       0.6283185307
X        3.1415926536      -2.5393191099       0.6283185307
X       -2.5132741229       0.7255197457       0.6283185307
X       -1.8849555922       0.3627598728       0.6283185307
X       -1.2566370614       0.0000000000       0.6283185307
X       -0.6283185307      -0.3627598728       0.6283185307
X        0.0000000000       0.0000000000       0.9424777961
X        0.6283185307      -0.3627598728       0.9424777961
X        1.2566370614      -0.7255197457       0.9424777961
X        1.8849555922      -1.0882796185       0.9424777961
X        2.5132741229      -1.4510394914       0.9424777961
X        3.1415926536      -1.8137993642       0.9424777961
X       -2.5132741229       1.4510394914       0.9424777961
X       -1.8849555922       1.0882796185       0.9424777961
X       -1.2566370614       0.7255197457       0.9424777961
X       -0.6283185307       0.3627598728       0.9424777961
X        0.0000000000       0.7255197457       0.9424777961
X        0.6283185307       0.3627598728       0.9424777961
X        1.2566370614      -0.0000000000       0.9424777961
X        1.8849555922      -0.3627598728       0.9424777961
X        2.5132741229      -0.7255197457       0.9424777961
X        3.1415926536      -1.0882796185       0.9424777961
X       -2.5132741229       2.1765592371       0.9424777961
X       -1.8849555922       1.8137993642       0.9424777961
X       -1.2566370614       1.4510394914       0.9424777961
X       -0.6283185307       1.0882796185       0.9424777961
X        0.0000000000       1.4510394914       0.9424777961
X        0.6283185307       1.0882796185       0.9424777961
X        1.2566370614       0.7255197457       0.9424777961
X        1.8849555922       0.3627598728       0.9424777961
X        2.5132741229      -0.0000000000       0.9424777961
X        3.1415926536      -0.3627598728       0.9424777961
X       -2.5132741229       2.9020789828       0.9424777961
X       -1.8849555922       2.5393191099       0.9424777961
X       -1.2566370614       2.1765592371       0.9424777961
X       -0.6283185307       1.8137993642       0.9424777961
X        0.0000000000       2.1765592371       0.9424777961
X        0.6283185307       1.8137993642       0.9424777961
X        1.2566370614       1.4510394914       0.9424777961
X        1.8849555922       1.0882796185       0.9424777961
X        2.5132741229       0.7255197457       0.9424777961
X        3.1415926536       0.3627598728       0.9424777961
X       -2.5132741229       3.6275987285       0.9424777961
X       -1.8849555922       3.2648388556       0.9424777961
X       -1.2566370614       2.9020789828       0.9424777961
X       -0.6283185307       2.5393191099       0.9424777961
X        0.0000000000       2.9020789828       0.9424777961
X        0.6283185307       2.5393191099       0.9424777961
X        1.2566370614       2.1765592371       0.9424777961
X        1.8849555922       1.8137993642       0.9424777961
X        2.5132741229       1.4510394914       0.9424777961
X        3.1415926536       1.0882796185       0.9424777961
X       -2.5132741229       4.3531184742       0.9424777961
X       -1.8849555922       3.9903586013       0.9424777961
X       -1.2566370614       3.6275987285       0.9424777961
X       -0.6283185307       3.2648388556       0.9424777961
X        0.0000000000       3.6275987285       0.9424777961
X        0.6283185307       3.2648388556       0.9424777961
X        1.2566370614       2.9020789828       0.9424777961
X        1.8849555922       2.5393191099       0.9424777961
X        2.5132741229       2.1765592371       0.9424777961
X        3.1415926536       1.8137993642       0.9424777961
X       -2.5132741229       5.0786382199       0.9424777961
X       -1.8849555922       4.7158783470       0.9424777961
X       -1.2566370614       4.3531184742       0.9424777961
X       -0.6283185307       3.9903586013       0.9424777961
X        0.0000000000      -2.9020789828       0.9424777961
X        0.6283185307      -3.2648388556       0.9424777961
X        1.2566370614      -3.6275987285       0.9424777961
X        1.8849555922      -3.9903586013       0.9424777961
X        2.5132741229      -4.3531184742       0.9424777961
X        3.1415926536      -4.7158783470       0.9424777961
X       -2.5132741229      -1.4510394914       0.9424777961
X       -1.8849555922      -1.8137993642       0.9424777961
X       -1.2566370614      -2.1765592371       0.9424777961
X       -0.6283185307      -2.5393191099       0.9424777961
X        0.0000000000      -2.1765592371       0.9424777961
X        0.6283185307      -2.5393191099       0.9424777961
X        1.2566370614      -2.9020789828       0.9424777961
X        1.8849555922      -3.2648388556       0.9424777961
X        2.5132741229      -3.6275987285       0.9424777961
X        3.1415926536      -3.9903586013       0.9424777961
X       -2.5132741229      -0.7255197457       0.9424777961
X       -1.8849555922      -1.0882796185       0.9424777961
X       -1.2566370614      -1.4510394914       0.9424777961
X       -0.6283185307      -1.8137993642       0.9424777961
X        0.0000000000      -1.4510394914       0.9424777961
X        0.6283185307      -1.8137993642       0.9424777961
X        1.2566370614      -2.1765592371       0.9424777961
X        1.8849555922      -2.5393191099       0.9424777961
X        2.5132741229      -2.9020789828       0.9424777961
X        3.1415926536      -3.2648388556       0.9424777961
X       -2.5132741229       0.0000000000       0.9424777961
X       -1.8849555922      -0.3627598728       0.9424777961
X       -1.2566370614      -0.7255197457       0.9424777961
X       -0.6283185307      -1.0882796185       0.9424777961
X        0.0000000000      -0.7255197457       0.9424777961
X        0.6283185307      -1.0882796185       0.9424777961
X        1.2566370614      -1.4510394914       0.9424777961
X        1.8849555922      -1.8137993642       0.9424777961
X        2.5132741229      -2.1765592371       0.9424777961
X        3.1415926536      -2.5393191099       0.9424777961
X       -2.5132741229       0.7255197457       0.9424777961
X       -1.8849555922       0.3627598728       0.9424777961
X       -1.2566370614       0.0000000000       0.9424777961
X       -0.6283185307      -0.3627598728       0.9424777961
X        0.0000000000       0.0000000000       1.2566370614
X        0.6283185307      -0.3627598728       1.2566370614
X        1.2566370614      -0.7255197457       1.2566370614
X        1.8849555922      -1.0882796185       1.2566370614
X        2.5132741229      -1.4510394914       1.2566370614
X        3.1415926536      -1.8137993642       1.2566370614
X       -2.5132741229       1.4510394914       1.2566370614
X       -1.8849555922       1.0882796185       1.2566370614
X       -1.2566370614       0.7255197457       1.2566370614
X       -0.6283185307       0.3627598728       1.2566370614
X        0.0000000000       0.7255197457       1.2566370614
X        0.6283185307       0.3627598728       1.2566370614
X        1.2566370614      -0.0000000000       1.2566370614
X        1.8849555922      -0.3627598728       1.2566370614
X        2.5132741229      -0.7255197457       1.2566370614
X        3.1415926536      -1.0882796185       1.2566370614
X       -2.5132741229       2.1765592371       1.2566370614
X       -1.8849555922       1.8137993642       1.2566370614
X       -1.2566370614       1.4510394914       1.2566370614
X       -0.6283185307       1.0882796185       1.2566370614
X        0.0000000000       1.4510394914       1.2566370614
X        0.6283185307       1.0882796185       1.2566370614
X        1.2566370614       0.7255197457       1.2566370614
X        1.8849555922       0.3627598728       1.2566370614
X        2.5132741229      -0.0000000000       1.2566370614
X        3.1415926536      -0.3627598728       1.2566370614
X       -2.5132741229       2.9020789828       1.2566370614
X       -1.8849555922       2.5393191099       1.2566370614
X       -1.2566370614       2.1765592371       1.2566370614
X       -0.6283185307       1.8137993642       1.2566370614
X        0.0000000000       2.1765592371       1.2566370614
X        0.6283185307       1.8137993642       1.2566370614
X        1.2566370614       1.4510394914       1.2566370614
X        1.8849555922       1.0882796185       1.2566370614
X        2.5132741229       0.7255197457       1.2566370614
X        3.1415926536       0.3627598728       1.2566370614
X       -2.5132741229       3.6275987285       1.2566370614
X       -1.8849555922       3.2648388556       1.2566370614
X       -1.2566370614       2.9020789828       1.2566370614
X       -0.6283185307       2.5393191099       1.2566370614
X        0.0000000000       2.9020789828       1.2566370614
X        0.6283185307       2.5393191099       1.2566370614
X        1.2566370614       2.1765592371       1.2566370614
X        1.8849555922       1.8137993642       1.2566370614
X        2.5132741229       1.4510394914       1.2566370614
X        3.1415926536       1.0882796185       1.2566370614
X       -2.5132741229       4.3531184742       1.2566370614
X       -1.8849555922       3.9903586013       1.2566370614
X       -1.2566370614       3.6275987285       1.2566370614
X       -0.6283185307       3.2648388556       1.2566370614
X        0.0000000000       3.6275987285       1.2566370614
X        0.6283185307       3.2648388556       1.2566370614
X        1.2566370614       2.9020789828       1.2566370614
X        1.8849555922       2.5393191099       1.2566370614
X        2.5132741229       2.1765592371       1.2566370614
X        3.1415926536       1.8137993642       1.2566370614
X       -2.5132741229       5.0786382199       1.2566370614
X       -1.8849555922       4.7158783470       1.2566370614
X       -1.2566370614       4.3531184742       1.2566370614
X       -0.6283185307       3.9903586013       1.2566370614
X        0.0000000000      -2.9020789828       1.2566370614
X        0.6283185307      -3.2648388556       1.2566370614
X        1.2566370614      -3.6275987285       1.2566370614
X        1.8849555922      -3.9903586013       1.2566370614
X        2.5132741229      -4.3531184742       1.2566370614
X        3.1415926536      -4.7158783470       1.2566370614
X       -2.5132741229      -1.4510394914       1.2566370614
X       -1.8849555922      -1.8137993642       1.2566370614
X       -1.2566370614      -2.1765592371       1.2566370614
X       -0.6283185307      -2.5393191099       1.2566370614
X        0.0000000000      -2.1765592371       1.2566370614
X        0.6283185307      -2.5393191099       1.2566370614
X        1.2566370614      -2.9020789828       1.2566370614
X        1.8849555922      -3.2648388556       1.2566370614
X        2.5132741229      -3.6275987285       1.2566370614
X        3.1415926536      -3.9903586013       1.2566370614
X       -2.5132741229      -0.7255197457       1.2566370614
X       -1.8849555922      -1.0882796185       1.2566370614
X       -1.2566370614      -1.4510394914       1.2566370614
X       -0.6283185307      -1.8137993642       1.2566370614
X        0.0000000000      -1.4510394914       1.2566370614
X        0.6283185307      -1.8137993642       1.2566370614
X        1.2566370614      -2.1765592371       1.2566370614
X        1.8849555922      -2.5393191099       1.2566370614
X        2.5132741229      -2.9020789828       1.2566370614
X        3.1415926536      -3.2648388556       1.2566370614
X       -2.5132741229       0.0000000000       1.2566370614
X       -1.8849555922      -0.3627598728       1.2566370614
X       -1.2566370614      -0.7255197457       1.2566370614
X       -0.6283185307      -1.0882796185       1.2566370614
X        0.0000000000      -0.7255197457       1.2566370614
X        0.6283185307      -1.0882796185       1.2566370614
X        1.2566370614      -1.4510394914       1.2566370614
X        1.8849555922      -1.8137993642       1.2566370614
X        2.5132741229      -2.1765592371       1.2566370614
X        3.1415926536      -2.5393191099       1.2566370614