CRYSTAL
PRIMVEC
     16.0000000000       0.0000000000       0.0000000000
      8.0000000000      13.8564064606       0.0000000000
      0.0000000000       0.0000000000      32.0000000000
PRIMCOORD
    3375        1
X        0.0000000000       0.0000000000       0.0000000000
X        1.0666666667       0.0000000000       0.0000000000
X        2.1333333333       0.0000000000       0.0000000000
X        3.2000000000       0.0000000000       0.0000000000
X        4.2666666667       0.0000000000       0.0000000000
X        5.3333333333       0.0000000000       0.0000000000
X        6.4000000000       0.0000000000       0.0000000000
X        7.4666666667       0.0000000000       0.0000000000
X        8.5333333333       0.0000000000       0.0000000000
X        9.6000000000       0.0000000000       0.0000000000
X       10.6666666667       0.0000000000       0.0000000000
X       11.7333333333       0.0000000000       0.0000000000
X       12.8000000000       0.0000000000       0.0000000000
X       13.8666666667       0.0000000000       0.0000000000
X       14.9333333333       0.0000000000       0.0000000000
X        0.5333333333       0.9237604307       0.0000000000
X        1.6000000000       0.9237604307       0.0000000000
X        2.6666666667       0.9237604307       0.0000000000
X        3.7333333333       0.9237604307       0.0000000000
X        4.8000000000       0.9237604307       0.0000000000
X        5.8666666667       0.9237604307       0.0000000000
X        6.9333333333       0.9237604307       0.0000000000
X        8.0000000000       0.9237604307       0.0000000000
X        9.0666666667       0.9237604307       0.0000000000
X       10.1333333333       0.9237604307       0.0000000000
X       11.2000000000       0.9237604307       0.0000000000
X       12.2666666667       0.9237604307       0.0000000000
X       13.3333333333       0.9237604307       0.0000000000
X       14.4000000000       0.9237604307       0.0000000000
X       15.4666666667       0.9237604307       0.0000000000
X        1.0666666667       1.8475208614       0.0000000000
X        2.1333333333       1.8475208614       0.0000000000
X        3.2000000000       1.8475208614       0.0000000000
X        4.2666666667       1.8475208614       0.0000000000
X        5.3333333333       1.8475208614       0.0000000000
X        6.4000000000       1.8475208614       0.0000000000
X        7.4666666667       1.8475208614       0.0000000000
X        8.5333333333       1.8475208614       0.0000000000
X        9.6000000000       1.8475208614       0.0000000000
X       10.6666666667       1.8475208614       0.0000000000
X       11.7333333333       1.8475208614       0.0000000000
X       12.8000000000       1.8475208614       0.0000000000
X       13.8666666667       1.8475208614       0.0000000000
X       14.9333333333       1.8475208614       0.0000000000
X       16.0000000000       1.8475208614       0.0000000000
X        1.6000000000       2.7712812921       0.0000000000
X        2.6666666667       2.7712812921       0.0000000000
X        3.7333333333       2.7712812921       0.0000000000
X        4.8000000000       2.7712812921       0.0000000000
X        5.8666666667       2.7712812921       0.0000000000
X        6.9333333333       2.7712812921       0.0000000000
X        8.0000000000       2.7712812921       0.0000000000
X        9.0666666667       2.7712812921       0.0000000000
X       10.1333333333       2.7712812921       0.0000000000
X       11.2000000000       2.7712812921       0.0000000000
X       12.2666666667       2.7712812921       0.0000000000
X       13.3333333333       2.7712812921       0.0000000000
X       14.4000000000       2.7712812921       0.0000000000
X       15.4666666667       2.7712812921       0.0000000000
X       16.5333333333       2.7712812921       0.0000000000
X        2.1333333333       3.6950417228       0.0000000000
X        3.2000000000       3.6950417228       0.0000000000
X        4.2666666667       3.6950417228       0.0000000000
X        5.3333333333       3.6950417228       0.0000000000
X        6.4000000000       3.6950417228       0.0000000000
X        7.4666666667       3.6950417228       0.0000000000
X        8.5333333333       3.6950417228       0.0000000000
X        9.6000000000       3.6950417228       0.0000000000
X       10.6666666667       3.6950417228       0.0000000000
X       11.7333333333       3.6950417228       0.0000000000
X       12.8000000000       3.6950417228       0.0000000000
X       13.8666666667       3.6950417228       0.0000000000
X       14.9333333333       3.6950417228       0.0000000000
X       16.0000000000       3.6950417228       0.0000000000
X       17.0666666667       3.6950417228       0.0000000000
X        2.6666666667       4.6188021535       0.0000000000
X        3.7333333333       4.6188021535       0.0000000000
X        4.8000000000       4.6188021535       0.0000000000
X        5.8666666667       4.6188021535       0.0000000000
X        6.9333333333       4.6188021535       0.0000000000
X        8.0000000000       4.6188021535       0.0000000000
X        9.0666666667       4.6188021535       0.0000000000
X       10.1333333333       4.6188021535       0.0000000000
X       11.2000000000       4.6188021535       0.0000000000
X       12.2666666667       4.6188021535       0.0000000000
X       13.3333333333       4.6188021535       0.0000000000
X       14.4000000000       4.6188021535       0.0000000000
X       15.4666666667       4.6188021535       0.0000000000
X       16.5333333333       4.6188021535       0.0000000000
X       17.6000000000       4.6188021535       0.0000000000
X        3.2000000000       5.5425625842       0.0000000000
X        4.2666666667       5.5425625842       0.0000000000
X        5.3333333333       5.5425625842       0.0000000000
X        6.4000000000       5.5425625842       0.0000000000
X        7.4666666667       5.5425625842       0.0000000000
X        8.5333333333       5.5425625842       0.0000000000
X        9.6000000000       5.5425625842       0.0000000000
X       10.6666666667       5.5425625842       0.0000000000
X       11.7333333333       5.5425625842       0.0000000000
X       12.8000000000       5.5425625842       0.0000000000
X       13.8666666667       5.5425625842       0.0000000000
X       14.9333333333       5.5425625842       0.0000000000
X       16.0000000000       5.5425625842       0.0000000000
X       17.0666666667       5.5425625842       0.0000000000
X       18.1333333333       5.5425625842       0.0000000000
X        3.7333333333       6.4663230149       0.0000000000
X        4.8000000000       6.4663230149       0.0000000000
X        5.8666666667       6.4663230149       0.0000000000
X        6.9333333333       6.4663230149       0.0000000000
X        8.0000000000       6.4663230149       0.0000000000
X        9.0666666667       6.4663230149       0.0000000000
X       10.1333333333       6.4663230149       0.0000000000
X       11.2000000000       6.4663230149       0.0000000000
X       12.2666666667       6.4663230149       0.0000000000
X       13.3333333333       6.4663230149       0.0000000000
X       14.4000000000       6.4663230149       0.0000000000
X       15.4666666667       6.4663230149       0.0000000000
X       16.5333333333       6.4663230149       0.0000000000
X       17.6000000000       6.4663230149       0.0000000000
X       18.6666666667       6.4663230149       0.0000000000
X        4.2666666667       7.3900834456       0.0000000000
X        5.3333333333       7.3900834456       0.0000000000
X        6.4000000000       7.3900834456       0.0000000000
X        7.4666666667       7.3900834456       0.0000000000
X        8.5333333333       7.3900834456       0.0000000000
X        9.6000000000       7.3900834456       0.0000000000
X       10.6666666667       7.3900834456       0.0000000000
X       11.7333333333       7.3900834456       0.0000000000
X       12.8000000000       7.3900834456       0.0000000000
X       13.8666666667       7.3900834456       0.0000000000
X       14.9333333333       7.3900834456       0.0000000000
X       16.0000000000       7.3900834456       0.0000000000
X       17.0666666667       7.3900834456       0.0000000000
X       18.1333333333       7.3900834456       0.0000000000
X       19.2000000000       7.3900834456       0.0000000000
X        4.8000000000       8.3138438763       0.0000000000
X        5.8666666667       8.3138438763       0.0000000000
X        6.9333333333       8.3138438763       0.0000000000
X        8.0000000000       8.3138438763       0.0000000000
X        9.0666666667       8.3138438763       0.0000000000
X       10.1333333333       8.3138438763       0.0000000000
X       11.2000000000       8.3138438763       0.0000000000
X       12.2666666667       8.3138438763       0.0000000000
X       13.3333333333       8.3138438763       0.0000000000
X       14.4000000000       8.3138438763       0.0000000000
X       15.4666666667       8.3138438763       0.0000000000
X       16.5333333333       8.3138438763       0.0000000000
X       17.6000000000       8.3138438763       0.0000000000
X       18.6666666667       8.3138438763       0.0000000000
X       19.7333333333       8.3138438763       0.0000000000
X        5.3333333333       9.2376043070       0.0000000000
X        6.4000000000       9.2376043070       0.0000000000
X        7.4666666667       9.2376043070       0.0000000000
X        8.5333333333       9.2376043070       0.0000000000
X        9.6000000000       9.2376043070       0.0000000000
X       10.6666666667       9.2376043070       0.0000000000
X       11.7333333333       9.2376043070       0.0000000000
X       12.8000000000       9.2376043070       0.0000000000
X       13.8666666667       9.2376043070       0.0000000000
X       14.9333333333       9.2376043070       0.0000000000
X       16.0000000000       9.2376043070       0.0000000000
X       17.0666666667       9.2376043070       0.0000000000
X       18.1333333333       9.2376043070       0.0000000000
X       19.2000000000       9.2376043070       0.0000000000
X       20.2666666667       9.2376043070       0.0000000000
X        5.8666666667      10.1613647377       0.0000000000
X        6.9333333333      10.1613647377       0.0000000000
X        8.0000000000      10.1613647377       0.0000000000
X        9.0666666667      10.1613647377       0.0000000000
X       10.1333333333      10.1613647377       0.0000000000
X       11.2000000000      10.1613647377       0.0000000000
X       12.2666666667      10.1613647377       0.0000000000
X       13.3333333333      10.1613647377       0.0000000000
X       14.4000000000      10.1613647377       0.0000000000
X       15.4666666667      10.1613647377       0.0000000000
X       16.5333333333      10.1613647377       0.0000000000
X       17.6000000000      10.1613647377       0.0000000000
X       18.6666666667      10.1613647377       0.0000000000
X       19.7333333333      10.1613647377       0.0000000000
X       20.8000000000      10.1613647377       0.0000000000
X        6.4000000000      11.0851251684       0.0000000000
X        7.4666666667      11.0851251684       0.0000000000
X        8.5333333333      11.0851251684       0.0000000000
X        9.6000000000      11.0851251684       0.0000000000
X       10.6666666667      11.0851251684       0.0000000000
X       11.7333333333      11.0851251684       0.0000000000
X       12.8000000000      11.0851251684       0.0000000000
X       13.8666666667      11.0851251684       0.0000000000
X       14.9333333333      11.0851251684       0.0000000000
X       16.0000000000      11.0851251684       0.0000000000
X       17.0666666667      11.0851251684       0.0000000000
X       18.1333333333      11.0851251684       0.0000000000
X       19.2000000000      11.0851251684       0.0000000000
X       20.2666666667      11.0851251684       0.0000000000
X       21.3333333333      11.0851251684       0.0000000000
X        6.9333333333      12.0088855991       0.0000000000
X        8.0000000000      12.0088855991       0.0000000000
X        9.0666666667      12.0088855991       0.0000000000
X       10.1333333333      12.0088855991       0.0000000000
X       11.2000000000      12.0088855991       0.0000000000
X       12.2666666667      12.0088855991       0.0000000000
X       13.3333333333      12.0088855991       0.0000000000
X       14.4000000000      12.0088855991       0.0000000000
X       15.4666666667      12.0088855991       0.0000000000
X       16.5333333333      12.0088855991       0.0000000000
X       17.6000000000      12.0088855991       0.0000000000
X       18.6666666667      12.0088855991       0.0000000000
X       19.7333333333      12.0088855991       0.0000000000
X       20.8000000000      12.0088855991       0.0000000000
X       21.8666666667      12.0088855991       0.0000000000
X        7.4666666667      12.9326460298       0.0000000000
X        8.5333333333      12.9326460298       0.0000000000
X        9.6000000000      12.9326460298       0.0000000000
X       10.6666666667      12.9326460298       0.0000000000
X       11.7333333333      12.9326460298       0.0000000000
X       12.8000000000      12.9326460298       0.0000000000
X       13.8666666667      12.9326460298       0.0000000000
X       14.9333333333      12.9326460298       0.0000000000
X       16.0000000000      12.9326460298       0.0000000000
X       17.0666666667      12.9326460298       0.0000000000
X       18.1333333333      12.9326460298       0.0000000000
X       19.2000000000      12.9326460298       0.0000000000
X       20.2666666667      12.9326460298       0.0000000000
X       21.3333333333      12.9326460298       0.0000000000
X       22.4000000000      12.9326460298       0.0000000000
X        0.0000000000       0.0000000000       2.1333333333
X        1.0666666667       0.0000000000       2.1333333333
X        2.1333333333       0.0000000000       2.1333333333
X        3.2000000000       0.0000000000       2.1333333333
X        4.2666666667       0.0000000000       2.1333333333
X        5.3333333333       0.0000000000       2.1333333333
X        6.4000000000       0.0000000000       2.1333333333
X        7.4666666667       0.0000000000       2.1333333333
X        8.5333333333       0.0000000000       2.1333333333
X        9.6000000000       0.0000000000       2.1333333333
X       10.6666666667       0.0000000000       2.1333333333
X       11.7333333333       0.0000000000       2.1333333333
X       12.8000000000       0.0000000000       2.1333333333
X       13.8666666667       0.0000000000       2.1333333333
X       14.9333333333       0.0000000000       2.1333333333
X        0.5333333333       0.9237604307       2.1333333333
X        1.6000000000       0.9237604307       2.1333333333
X        2.6666666667       0.9237604307       2.1333333333
X        3.7333333333       0.9237604307       2.1333333333
X        4.8000000000       0.9237604307       2.1333333333
X        5.8666666667       0.9237604307       2.1333333333
X        6.9333333333       0.9237604307       2.1333333333
X        8.0000000000       0.9237604307       2.1333333333
X        9.0666666667       0.9237604307       2.1333333333
X       10.1333333333       0.9237604307       2.1333333333
X       11.2000000000       0.9237604307       2.1333333333
X       12.2666666667       0.9237604307       2.1333333333
X       13.3333333333       0.9237604307       2.1333333333
X       14.4000000000       0.9237604307       2.1333333333
X       15.4666666667       0.9237604307       2.1333333333
X        1.0666666667       1.8475208614       2.1333333333
X        2.1333333333       1.8475208614       2.1333333333
X        3.2000000000       1.8475208614       2.1333333333
X        4.2666666667       1.8475208614       2.1333333333
X        5.3333333333       1.8475208614       2.1333333333
X        6.4000000000       1.8475208614       2.1333333333
X        7.4666666667       1.8475208614       2.1333333333
X        8.5333333333       1.8475208614       2.1333333333
X        9.6000000000       1.8475208614       2.1333333333
X       10.6666666667       1.8475208614       2.1333333333
X       11.7333333333       1.8475208614       2.1333333333
X       12.8000000000       1.8475208614       2.1333333333
X       13.8666666667       1.8475208614       2.1333333333
X       14.9333333333       1.8475208614       2.1333333333
X       16.0000000000       1.8475208614       2.1333333333
X        1.6000000000       2.7712812921       2.1333333333
X        2.6666666667       2.7712812921       2.1333333333
X        3.7333333333       2.7712812921       2.1333333333
X        4.8000000000       2.7712812921       2.1333333333
X        5.8666666667       2.7712812921       2.1333333333
X        6.9333333333       2.7712812921       2.1333333333
X        8.0000000000       2.7712812921       2.1333333333
X        9.0666666667       2.7712812921       2.1333333333
X       10.1333333333       2.7712812921       2.1333333333
X       11.2000000000       2.7712812921       2.1333333333
X       12.2666666667       2.7712812921       2.1333333333
X       13.3333333333       2.7712812921       2.1333333333
X       14.4000000000       2.7712812921       2.1333333333
X       15.4666666667       2.7712812921       2.1333333333
X       16.5333333333       2.7712812921       2.1333333333
X        2.1333333333       3.6950417228       2.1333333333
X        3.2000000000       3.6950417228       2.1333333333
X        4.2666666667       3.6950417228       2.1333333333
X        5.3333333333       3.6950417228       2.1333333333
X        6.4000000000       3.6950417228       2.1333333333
X        7.4666666667       3.6950417228       2.1333333333
X        8.5333333333       3.6950417228       2.1333333333
X        9.6000000000       3.6950417228       2.1333333333
X       10.6666666667       3.6950417228       2.1333333333
X       11.7333333333       3.6950417228       2.1333333333
X       12.8000000000       3.6950417228       2.1333333333
X       13.8666666667       3.6950417228       2.1333333333
X       14.9333333333       3.6950417228       2.1333333333
X       16.0000000000       3.6950417228       2.1333333333
X       17.0666666667       3.6950417228       2.1333333333
X        2.6666666667       4.6188021535       2.1333333333
X        3.7333333333       4.6188021535       2.1333333333
X        4.8000000000       4.6188021535       2.1333333333
X        5.8666666667       4.6188021535       2.1333333333
X        6.9333333333       4.6188021535       2.1333333333
X        8.0000000000       4.6188021535       2.1333333333
X        9.0666666667       4.6188021535       2.1333333333
X       10.1333333333       4.6188021535       2.1333333333
X       11.2000000000       4.6188021535       2.1333333333
X       12.2666666667       4.6188021535       2.1333333333
X       13.3333333333       4.6188021535       2.1333333333
X       14.4000000000       4.6188021535       2.1333333333
X       15.4666666667       4.6188021535       2.1333333333
X       16.5333333333       4.6188021535       2.1333333333
X       17.6000000000       4.6188021535       2.1333333333
X        3.2000000000       5.5425625842       2.1333333333
X        4.2666666667       5.5425625842       2.1333333333
X        5.3333333333       5.5425625842       2.1333333333
X        6.4000000000       5.5425625842       2.1333333333
X        7.4666666667       5.5425625842       2.1333333333
X        8.5333333333       5.5425625842       2.1333333333
X        9.6000000000       5.5425625842       2.1333333333
X       10.6666666667       5.5425625842       2.1333333333
X       11.7333333333       5.5425625842       2.1333333333
X       12.8000000000       5.5425625842       2.1333333333
X       13.8666666667       5.5425625842       2.1333333333
X       14.9333333333       5.5425625842       2.1333333333
X       16.0000000000       5.5425625842       2.1333333333
X       17.0666666667       5.5425625842       2.1333333333
X       18.1333333333       5.5425625842       2.1333333333
X        3.7333333333       6.4663230149       2.1333333333
X        4.8000000000       6.4663230149       2.1333333333
X        5.8666666667       6.4663230149       2.1333333333
X        6.9333333333       6.4663230149       2.1333333333
X        8.0000000000       6.4663230149       2.1333333333
X        9.0666666667       6.4663230149       2.1333333333
X       10.1333333333       6.4663230149       2.1333333333
X       11.2000000000       6.4663230149       2.1333333333
X       12.2666666667       6.4663230149       2.1333333333
X       13.3333333333       6.4663230149       2.1333333333
X       14.4000000000       6.4663230149       2.1333333333
X       15.4666666667       6.4663230149       2.1333333333
X       16.5333333333       6.4663230149       2.1333333333
X       17.6000000000       6.4663230149       2.1333333333
X       18.6666666667       6.4663230149       2.1333333333
X        4.2666666667       7.3900834456       2.1333333333
X        5.3333333333       7.3900834456       2.1333333333
X        6.4000000000       7.3900834456       2.1333333333
X        7.4666666667       7.3900834456       2.1333333333
X        8.5333333333       7.3900834456       2.1333333333
X        9.6000000000       7.3900834456       2.1333333333
X       10.6666666667       7.3900834456       2.1333333333
X       11.7333333333       7.3900834456       2.1333333333
X       12.8000000000       7.3900834456       2.1333333333
X       13.8666666667       7.3900834456       2.1333333333
X       14.9333333333       7.3900834456       2.1333333333
X       16.0000000000       7.3900834456       2.1333333333
X       17.0666666667       7.3900834456       2.1333333333
X       18.1333333333       7.3900834456       2.1333333333
X       19.2000000000       7.3900834456       2.1333333333
X        4.8000000000       8.3138438763       2.1333333333
X        5.8666666667       8.3138438763       2.1333333333
X        6.9333333333       8.3138438763       2.1333333333
X        8.0000000000       8.3138438763       2.1333333333
X        9.0666666667       8.3138438763       2.1333333333
X       10.1333333333       8.3138438763       2.1333333333
X       11.2000000000       8.3138438763       2.1333333333
X       12.2666666667       8.3138438763       2.1333333333
X       13.3333333333       8.3138438763       2.1333333333
X       14.4000000000       8.3138438763       2.1333333333
X       15.4666666667       8.3138438763       2.1333333333
X       16.5333333333       8.3138438763       2.1333333333
X       17.6000000000       8.3138438763       2.1333333333
X       18.6666666667       8.3138438763       2.1333333333
X       19.7333333333       8.3138438763       2.1333333333
X        5.3333333333       9.2376043070       2.1333333333
X        6.4000000000       9.2376043070       2.1333333333
X        7.4666666667       9.2376043070       2.1333333333
X        8.5333333333       9.2376043070       2.1333333333
X        9.6000000000       9.2376043070       2.1333333333
X       10.6666666667       9.2376043070       2.1333333333
X       11.7333333333       9.2376043070       2.1333333333
X       12.8000000000       9.2376043070       2.1333333333
X       13.8666666667       9.2376043070       2.1333333333
X       14.9333333333       9.2376043070       2.1333333333
X       16.0000000000       9.2376043070       2.1333333333
X       17.0666666667       9.2376043070       2.1333333333
X       18.1333333333       9.2376043070       2.1333333333
X       19.2000000000       9.2376043070       2.1333333333
X       20.2666666667       9.2376043070       2.1333333333
X        5.8666666667      10.1613647377       2.1333333333
X        6.9333333333      10.1613647377       2.1333333333
X        8.0000000000      10.1613647377       2.1333333333
X        9.0666666667      10.1613647377       2.1333333333
X       10.1333333333      10.1613647377       2.1333333333
X       11.2000000000      10.1613647377       2.1333333333
X       12.2666666667      10.1613647377       2.1333333333
X       13.3333333333      10.1613647377       2.1333333333
X       14.4000000000      10.1613647377       2.1333333333
X       15.4666666667      10.1613647377       2.1333333333
X       16.5333333333      10.1613647377       2.1333333333
X       17.6000000000      10.1613647377       2.1333333333
X       18.6666666667      10.1613647377       2.1333333333
X       19.7333333333      10.1613647377       2.1333333333
X       20.8000000000      10.1613647377       2.1333333333
X        6.4000000000      11.0851251684       2.1333333333
X        7.4666666667      11.0851251684       2.1333333333
X        8.5333333333      11.0851251684       2.1333333333
X        9.6000000000      11.0851251684       2.1333333333
X       10.6666666667      11.0851251684       2.1333333333
X       11.7333333333      11.0851251684       2.1333333333
X       12.8000000000      11.0851251684       2.1333333333
X       13.8666666667      11.0851251684       2.1333333333
X       14.9333333333      11.0851251684       2.1333333333
X       16.0000000000      11.0851251684       2.1333333333
X       17.0666666667      11.0851251684       2.1333333333
X       18.1333333333      11.0851251684       2.1333333333
X       19.2000000000      11.0851251684       2.1333333333
X       20.2666666667      11.0851251684       2.1333333333
X       21.3333333333      11.0851251684       2.1333333333
X        6.9333333333      12.0088855991       2.1333333333
X        8.0000000000      12.0088855991       2.1333333333
X        9.0666666667      12.0088855991       2.1333333333
X       10.1333333333      12.0088855991       2.1333333333
X       11.2000000000      12.0088855991       2.1333333333
X       12.2666666667      12.0088855991       2.1333333333
X       13.3333333333      12.0088855991       2.1333333333
X       14.4000000000      12.0088855991       2.1333333333
X       15.4666666667      12.0088855991       2.1333333333
X       16.5333333333      12.0088855991       2.1333333333
X       17.6000000000      12.0088855991       2.1333333333
X       18.6666666667      12.0088855991       2.1333333333
X       19.7333333333      12.0088855991       2.1333333333
X       20.8000000000      12.0088855991       2.1333333333
X       21.8666666667      12.0088855991       2.1333333333
X        7.4666666667      12.9326460298       2.1333333333
X        8.5333333333      12.9326460298       2.1333333333
X        9.6000000000      12.9326460298       2.1333333333
X       10.6666666667      12.9326460298       2.1333333333
X       11.7333333333      12.9326460298       2.1333333333
X       12.8000000000      12.9326460298       2.1333333333
X       13.8666666667      12.9326460298       2.1333333333
X       14.9333333333      12.9326460298       2.1333333333
X       16.0000000000      12.9326460298       2.1333333333
X       17.0666666667      12.9326460298       2.1333333333
X       18.1333333333      12.9326460298       2.1333333333
X       19.2000000000      12.9326460298       2.1333333333
X       20.2666666667      12.9326460298       2.1333333333
X       21.3333333333      12.9326460298       2.1333333333
X       22.4000000000      12.9326460298       2.1333333333
X        0.0000000000       0.0000000000       4.2666666667
X        1.0666666667       0.0000000000       4.2666666667
X        2.1333333333       0.0000000000       4.2666666667
X        3.2000000000       0.0000000000       4.2666666667
X        4.2666666667       0.0000000000       4.2666666667
X        5.3333333333       0.0000000000       4.2666666667
X        6.4000000000       0.0000000000       4.2666666667
X        7.4666666667       0.0000000000       4.2666666667
X        8.5333333333       0.0000000000       4.2666666667
X        9.6000000000       0.0000000000       4.2666666667
X       10.6666666667       0.0000000000       4.2666666667
X       11.7333333333       0.0000000000       4.2666666667
X       12.8000000000       0.0000000000       4.2666666667
X       13.8666666667       0.0000000000       4.2666666667
X       14.9333333333       0.0000000000       4.2666666667
X        0.5333333333       0.9237604307       4.2666666667
X        1.6000000000       0.9237604307       4.2666666667
X        2.6666666667       0.9237604307       4.2666666667
X        3.7333333333       0.9237604307       4.2666666667
X        4.8000000000       0.9237604307       4.2666666667
X        5.8666666667       0.9237604307       4.2666666667
X        6.9333333333       0.9237604307       4.2666666667
X        8.0000000000       0.9237604307       4.2666666667
X        9.0666666667       0.9237604307       4.2666666667
X       10.1333333333       0.9237604307       4.2666666667
X       11.2000000000       0.9237604307       4.2666666667
X       12.2666666667       0.9237604307       4.2666666667
X       13.3333333333       0.9237604307       4.2666666667
X       14.4000000000       0.9237604307       4.2666666667
X       15.4666666667       0.9237604307       4.2666666667
X        1.0666666667       1.8475208614       4.2666666667
X        2.1333333333       1.8475208614       4.2666666667
X        3.2000000000       1.8475208614       4.2666666667
X        4.2666666667       1.8475208614       4.2666666667
X        5.3333333333       1.8475208614       4.2666666667
X        6.4000000000       1.8475208614       4.2666666667
X        7.4666666667       1.8475208614       4.2666666667
X        8.5333333333       1.8475208614       4.2666666667
X        9.6000000000       1.8475208614       4.2666666667
X       10.6666666667       1.8475208614       4.2666666667
X       11.7333333333       1.8475208614       4.2666666667
X       12.8000000000       1.8475208614       4.2666666667
X       13.8666666667       1.8475208614       4.2666666667
X       14.9333333333       1.8475208614       4.2666666667
X       16.0000000000       1.8475208614       4.2666666667
X        1.6000000000       2.7712812921       4.2666666667