CRYSTAL
PRIMVEC
     10.0000000000       0.0000000000       0.0000000000
      5.0000000000       8.6602540378       0.0000000000
      0.0000000000       0.0000000000      20.0000000000
PRIMCOORD
    2000        1
X        0.0000000000       0.0000000000       0.0000000000
X        1.0000000000       0.0000000000       0.0000000000
X        2.0000000000       0.0000000000       0.0000000000
X        3.0000000000       0.0000000000       0.0000000000
X        4.0000000000       0.0000000000       0.0000000000
X        5.0000000000       0.0000000000       0.0000000000
X        6.0000000000       0.0000000000       0.0000000000
X        7.0000000000       0.0000000000       0.0000000000
X        8.0000000000       0.0000000000       0.0000000000
X        9.0000000000       0.0000000000       0.0000000000
X        0.5000000000       0.8660254038       0.0000000000
X        1.5000000000       0.8660254038       0.0000000000
X        2.5000000000       0.8660254038       0.0000000000
X        3.5000000000       0.8660254038       0.0000000000
X        4.5000000000       0.8660254038       0.0000000000
X        5.5000000000       0.8660254038       0.0000000000
X        6.5000000000       0.8660254038       0.0000000000
X        7.5000000000       0.8660254038       0.0000000000
X        8.5000000000       0.8660254038       0.0000000000
X        9.5000000000       0.8660254038       0.0000000000
X        1.0000000000       1.7320508076       0.0000000000
X        2.0000000000       1.7320508076       0.0000000000
X        3.0000000000       1.7320508076       0.0000000000
X        4.0000000000       1.7320508076       0.0000000000
X        5.0000000000       1.7320508076       0.0000000000
X        6.0000000000       1.7320508076       0.0000000000
X        7.0000000000       1.7320508076       0.0000000000
X        8.0000000000       1.7320508076       0.0000000000
X        9.0000000000       1.7320508076       0.0000000000
X       10.0000000000       1.7320508076       0.0000000000
X        1.5000000000       2.5980762114       0.0000000000
X        2.5000000000       2.5980762114       0.0000000000
X        3.5000000000       2.5980762114       0.0000000000
X        4.5000000000       2.5980762114       0.0000000000
X        5.5000000000       2.5980762114       0.0000000000
X        6.5000000000       2.5980762114       0.0000000000
X        7.5000000000       2.5980762114       0.0000000000
X        8.5000000000       2.5980762114       0.0000000000
X        9.5000000000       2.5980762114       0.0000000000
X       10.5000000000       2.5980762114       0.0000000000
X        2.0000000000       3.4641016151       0.0000000000
X        3.0000000000       3.4641016151       0.0000000000
X        4.0000000000       3.4641016151       0.0000000000
X        5.0000000000       3.4641016151       0.0000000000
X        6.0000000000       3.4641016151       0.0000000000
X        7.0000000000       3.4641016151       0.0000000000
X        8.0000000000       3.4641016151       0.0000000000
X        9.0000000000       3.4641016151       0.0000000000
X       10.0000000000       3.4641016151       0.0000000000
X       11.0000000000       3.4641016151       0.0000000000
X        2.5000000000       4.3301270189       0.0000000000
X        3.5000000000       4.3301270189       0.0000000000
X        4.5000000000       4.3301270189       0.0000000000
X        5.5000000000       4.3301270189       0.0000000000
X        6.5000000000       4.3301270189       0.0000000000
X        7.5000000000       4.3301270189       0.0000000000
X        8.5000000000       4.3301270189       0.0000000000
X        9.5000000000       4.3301270189       0.0000000000
X       10.5000000000       4.3301270189       0.0000000000
X       11.5000000000       4.3301270189       0.0000000000
X        3.0000000000       5.1961524227       0.0000000000
X        4.0000000000       5.1961524227       0.0000000000
X        5.0000000000       5.1961524227       0.0000000000
X        6.0000000000       5.1961524227       0.0000000000
X        7.0000000000       5.1961524227       0.0000000000
X        8.0000000000       5.1961524227       0.0000000000
X        9.0000000000       5.1961524227       0.0000000000
X       10.0000000000       5.1961524227       0.0000000000
X       11.0000000000       5.1961524227       0.0000000000
X       12.0000000000       5.1961524227       0.0000000000
X        3.5000000000       6.0621778265       0.0000000000
X        4.5000000000       6.0621778265       0.0000000000
X        5.5000000000       6.0621778265       0.0000000000
X        6.5000000000       6.0621778265       0.0000000000
X        7.5000000000       6.0621778265       0.0000000000
X        8.5000000000       6.0621778265       0.0000000000
X        9.5000000000       6.0621778265       0.0000000000
X       10.5000000000       6.0621778265       0.0000000000
X       11.5000000000       6.0621778265       0.0000000000
X       12.5000000000       6.0621778265       0.0000000000
X        4.0000000000       6.9282032303       0.0000000000
X        5.0000000000       6.9282032303       0.0000000000
X        6.0000000000       6.9282032303       0.0000000000
X        7.0000000000       6.9282032303       0.0000000000
X        8.0000000000       6.9282032303       0.0000000000
X        9.0000000000       6.9282032303       0.0000000000
X       10.0000000000       6.9282032303       0.0000000000
X       11.0000000000       6.9282032303       0.0000000000
X       12.0000000000       6.9282032303       0.0000000000
X       13.0000000000       6.9282032303       0.0000000000
X        4.5000000000       7.7942286341       0.0000000000
X        5.5000000000       7.7942286341       0.0000000000
X        6.5000000000       7.7942286341       0.0000000000
X        7.5000000000       7.7942286341       0.0000000000
X        8.5000000000       7.7942286341       0.0000000000
X        9.5000000000       7.7942286341       0.0000000000
X       10.5000000000       7.7942286341       0.0000000000
X       11.5000000000       7.7942286341       0.0000000000
X       12.5000000000       7.7942286341       0.0000000000
X       13.5000000000       7.7942286341       0.0000000000
X        0.0000000000       0.0000000000       1.0000000000
X        1.0000000000       0.0000000000       1.0000000000
X        2.0000000000       0.0000000000       1.0000000000
X        3.0000000000       0.0000000000       1.0000000000
X        4.0000000000       0.0000000000       1.0000000000
X        5.0000000000       0.0000000000       1.0000000000
X        6.0000000000       0.0000000000       1.0000000000
X        7.0000000000       0.0000000000       1.0000000000
X        8.0000000000       0.0000000000       1.0000000000
X        9.0000000000       0.0000000000       1.0000000000
X        0.5000000000       0.8660254038       1.0000000000
X        1.5000000000       0.8660254038       1.0000000000
X        2.5000000000       0.8660254038       1.0000000000
X        3.5000000000       0.8660254038       1.0000000000
X        4.5000000000       0.8660254038       1.0000000000
X        5.5000000000       0.8660254038       1.0000000000
X        6.5000000000       0.8660254038       1.0000000000
X        7.5000000000       0.8660254038       1.0000000000
X        8.5000000000       0.8660254038       1.0000000000
X        9.5000000000       0.8660254038       1.0000000000
X        1.0000000000       1.7320508076       1.0000000000
X        2.0000000000       1.7320508076       1.0000000000
X        3.0000000000       1.7320508076       1.0000000000
X        4.0000000000       1.7320508076       1.0000000000
X        5.0000000000       1.7320508076       1.0000000000
X        6.0000000000       1.7320508076       1.0000000000
X        7.0000000000       1.7320508076       1.0000000000
X        8.0000000000       1.7320508076       1.0000000000
X        9.0000000000       1.7320508076       1.0000000000
X       10.0000000000       1.7320508076       1.0000000000
X        1.5000000000       2.5980762114       1.0000000000
X        2.5000000000       2.5980762114       1.0000000000
X        3.5000000000       2.5980762114       1.0000000000
X        4.5000000000       2.5980762114       1.0000000000
X        5.5000000000       2.5980762114       1.0000000000
X        6.5000000000       2.5980762114       1.0000000000
X        7.5000000000       2.5980762114       1.0000000000
X        8.5000000000       2.5980762114       1.0000000000
X        9.5000000000       2.5980762114       1.0000000000
X       10.5000000000       2.5980762114       1.0000000000
X        2.0000000000       3.4641016151       1.0000000000
X        3.0000000000       3.4641016151       1.0000000000
X        4.0000000000       3.4641016151       1.0000000000
X        5.0000000000       3.4641016151       1.0000000000
X        6.0000000000       3.4641016151       1.0000000000
X        7.0000000000       3.4641016151       1.0000000000
X        8.0000000000       3.4641016151       1.0000000000
X        9.0000000000       3.4641016151       1.0000000000
X       10.0000000000       3.4641016151       1.0000000000
X       11.0000000000       3.4641016151       1.0000000000
X        2.5000000000       4.3301270189       1.0000000000
X        3.5000000000       4.3301270189       1.0000000000
X        4.5000000000       4.3301270189       1.0000000000
X        5.5000000000       4.3301270189       1.0000000000
X        6.5000000000       4.3301270189       1.0000000000
X        7.5000000000       4.3301270189       1.0000000000
X        8.5000000000       4.3301270189       1.0000000000
X        9.5000000000       4.3301270189       1.0000000000
X       10.5000000000       4.3301270189       1.0000000000
X       11.5000000000       4.3301270189       1.0000000000
X        3.0000000000       5.1961524227       1.0000000000
X        4.0000000000       5.1961524227       1.0000000000
X        5.0000000000       5.1961524227       1.0000000000
X        6.0000000000       5.1961524227       1.0000000000
X        7.0000000000       5.1961524227       1.0000000000
X        8.0000000000       5.1961524227       1.0000000000
X        9.0000000000       5.1961524227       1.0000000000
X       10.0000000000       5.1961524227       1.0000000000
X       11.0000000000       5.1961524227       1.0000000000
X       12.0000000000       5.1961524227       1.0000000000
X        3.5000000000       6.0621778265       1.0000000000
X        4.5000000000       6.0621778265       1.0000000000
X        5.5000000000       6.0621778265       1.0000000000
X        6.5000000000       6.0621778265       1.0000000000
X        7.5000000000       6.0621778265       1.0000000000
X        8.5000000000       6.0621778265       1.0000000000
X        9.5000000000       6.0621778265       1.0000000000
X       10.5000000000       6.0621778265       1.0000000000
X       11.5000000000       6.0621778265       1.0000000000
X       12.5000000000       6.0621778265       1.0000000000
X        4.0000000000       6.9282032303       1.0000000000
X        5.0000000000       6.9282032303       1.0000000000
X        6.0000000000       6.9282032303       1.0000000000
X        7.0000000000       6.9282032303       1.0000000000
X        8.0000000000       6.9282032303       1.0000000000
X        9.0000000000       6.9282032303       1.0000000000
X       10.0000000000       6.9282032303       1.0000000000
X       11.0000000000       6.9282032303       1.0000000000
X       12.0000000000       6.9282032303       1.0000000000
X       13.0000000000       6.9282032303       1.0000000000
X        4.5000000000       7.7942286341       1.0000000000
X        5.5000000000       7.7942286341       1.0000000000
X        6.5000000000       7.7942286341       1.0000000000
X        7.5000000000       7.7942286341       1.0000000000
X        8.5000000000       7.7942286341       1.0000000000
X        9.5000000000       7.7942286341       1.0000000000
X       10.5000000000       7.7942286341       1.0000000000
X       11.5000000000       7.7942286341       1.0000000000
X       12.5000000000       7.7942286341       1.0000000000
X       13.5000000000       7.7942286341       1.0000000000
X        0.0000000000       0.0000000000       2.0000000000
X        1.0000000000       0.0000000000       2.0000000000
X        2.0000000000       0.0000000000       2.0000000000
X        3.0000000000       0.0000000000       2.0000000000
X        4.0000000000       0.0000000000       2.0000000000
X        5.0000000000       0.0000000000       2.0000000000
X        6.0000000000       0.0000000000       2.0000000000
X        7.0000000000       0.0000000000       2.0000000000
X        8.0000000000       0.0000000000       2.0000000000
X        9.0000000000       0.0000000000       2.0000000000
X        0.5000000000       0.8660254038       2.0000000000
X        1.5000000000       0.8660254038       2.0000000000
X        2.5000000000       0.8660254038       2.0000000000
X        3.5000000000       0.8660254038       2.0000000000
X        4.5000000000       0.8660254038       2.0000000000
X        5.5000000000       0.8660254038       2.0000000000
X        6.5000000000       0.8660254038       2.0000000000
X        7.5000000000       0.8660254038       2.0000000000
X        8.5000000000       0.8660254038       2.0000000000
X        9.5000000000       0.8660254038       2.0000000000
X        1.0000000000       1.7320508076       2.0000000000
X        2.0000000000       1.7320508076       2.0000000000
X        3.0000000000       1.7320508076       2.0000000000
X        4.0000000000       1.7320508076       2.0000000000
X        5.0000000000       1.7320508076       2.0000000000
X        6.0000000000       1.7320508076       2.0000000000
X        7.0000000000       1.7320508076       2.0000000000
X        8.0000000000       1.7320508076       2.0000000000
X        9.0000000000       1.7320508076       2.0000000000
X       10.0000000000       1.7320508076       2.0000000000
X        1.5000000000       2.5980762114       2.0000000000
X        2.5000000000       2.5980762114       2.0000000000
X        3.5000000000       2.5980762114       2.0000000000
X        4.5000000000       2.5980762114       2.0000000000
X        5.5000000000       2.5980762114       2.0000000000
X        6.5000000000       2.5980762114       2.0000000000
X        7.5000000000       2.5980762114       2.0000000000
X        8.5000000000       2.5980762114       2.0000000000
X        9.5000000000       2.5980762114       2.0000000000
X       10.5000000000       2.5980762114       2.0000000000
X        2.0000000000       3.4641016151       2.0000000000
X        3.0000000000       3.4641016151       2.0000000000
X        4.0000000000       3.4641016151       2.0000000000
X        5.0000000000       3.4641016151       2.0000000000
X        6.0000000000       3.4641016151       2.0000000000
X        7.0000000000       3.4641016151       2.0000000000
X        8.0000000000       3.4641016151       2.0000000000
X        9.0000000000       3.4641016151       2.0000000000
X       10.0000000000       3.4641016151       2.0000000000
X       11.0000000000       3.4641016151       2.0000000000
X        2.5000000000       4.3301270189       2.0000000000
X        3.5000000000       4.3301270189       2.0000000000
X        4.5000000000       4.3301270189       2.0000000000
X        5.5000000000       4.3301270189       2.0000000000
X        6.5000000000       4.3301270189       2.0000000000
X        7.5000000000       4.3301270189       2.0000000000
X        8.5000000000       4.3301270189       2.0000000000
X        9.5000000000       4.3301270189       2.0000000000
X       10.5000000000       4.3301270189       2.0000000000
X       11.5000000000       4.3301270189       2.0000000000
X        3.0000000000       5.1961524227       2.0000000000
X        4.0000000000       5.1961524227       2.0000000000
X        5.0000000000       5.1961524227       2.0000000000
X        6.0000000000       5.1961524227       2.0000000000
X        7.0000000000       5.1961524227       2.0000000000
X        8.0000000000       5.1961524227       2.0000000000
X        9.0000000000       5.1961524227       2.0000000000
X       10.0000000000       5.1961524227       2.0000000000
X       11.0000000000       5.1961524227       2.0000000000
X       12.0000000000       5.1961524227       2.0000000000
X        3.5000000000       6.0621778265       2.0000000000
X        4.5000000000       6.0621778265       2.0000000000
X        5.5000000000       6.0621778265       2.0000000000
X        6.5000000000       6.0621778265       2.0000000000
X        7.5000000000       6.0621778265       2.0000000000
X        8.5000000000       6.0621778265       2.0000000000
X        9.5000000000       6.0621778265       2.0000000000
X       10.5000000000       6.0621778265       2.0000000000
X       11.5000000000       6.0621778265       2.0000000000
X       12.5000000000       6.0621778265       2.0000000000
X        4.0000000000       6.9282032303       2.0000000000
X        5.0000000000       6.9282032303       2.0000000000
X        6.0000000000       6.9282032303       2.0000000000
X        7.0000000000       6.9282032303       2.0000000000
X        8.0000000000       6.9282032303       2.0000000000
X        9.0000000000       6.9282032303       2.0000000000
X       10.0000000000       6.9282032303       2.0000000000
X       11.0000000000       6.9282032303       2.0000000000
X       12.0000000000       6.9282032303       2.0000000000
X       13.0000000000       6.9282032303       2.0000000000
X        4.5000000000       7.7942286341       2.0000000000
X        5.5000000000       7.7942286341       2.0000000000
X        6.5000000000       7.7942286341       2.0000000000
X        7.5000000000       7.7942286341       2.0000000000
X        8.5000000000       7.7942286341       2.0000000000
X        9.5000000000       7.7942286341       2.0000000000
X       10.5000000000       7.7942286341       2.0000000000
X       11.5000000000       7.7942286341       2.0000000000
X       12.5000000000       7.7942286341       2.0000000000
X       13.5000000000       7.7942286341       2.0000000000
X        0.0000000000       0.0000000000       3.0000000000
X        1.0000000000       0.0000000000       3.0000000000
X        2.0000000000       0.0000000000       3.0000000000
X        3.0000000000       0.0000000000       3.0000000000
X        4.0000000000       0.0000000000       3.0000000000
X        5.0000000000       0.0000000000       3.0000000000
X        6.0000000000       0.0000000000       3.0000000000
X        7.0000000000       0.0000000000       3.0000000000
X        8.0000000000       0.0000000000       3.0000000000
X        9.0000000000       0.0000000000       3.0000000000
X        0.5000000000       0.8660254038       3.0000000000
X        1.5000000000       0.8660254038       3.0000000000
X        2.5000000000       0.8660254038       3.0000000000
X        3.5000000000       0.8660254038       3.0000000000
X        4.5000000000       0.8660254038       3.0000000000
X        5.5000000000       0.8660254038       3.0000000000
X        6.5000000000       0.8660254038       3.0000000000
X        7.5000000000       0.8660254038       3.0000000000
X        8.5000000000       0.8660254038       3.0000000000
X        9.5000000000       0.8660254038       3.0000000000
X        1.0000000000       1.7320508076       3.0000000000
X        2.0000000000       1.7320508076       3.0000000000
X        3.0000000000       1.7320508076       3.0000000000
X        4.0000000000       1.7320508076       3.0000000000
X        5.0000000000       1.7320508076       3.0000000000
X        6.0000000000       1.7320508076       3.0000000000
X        7.0000000000       1.7320508076       3.0000000000
X        8.0000000000       1.7320508076       3.0000000000
X        9.0000000000       1.7320508076       3.0000000000
X       10.0000000000       1.7320508076       3.0000000000
X        1.5000000000       2.5980762114       3.0000000000
X        2.5000000000       2.5980762114       3.0000000000
X        3.5000000000       2.5980762114       3.0000000000
X        4.5000000000       2.5980762114       3.0000000000
X        5.5000000000       2.5980762114       3.0000000000
X        6.5000000000       2.5980762114       3.0000000000
X        7.5000000000       2.5980762114       3.0000000000
X        8.5000000000       2.5980762114       3.0000000000
X        9.5000000000       2.5980762114       3.0000000000
X       10.5000000000       2.5980762114       3.0000000000
X        2.0000000000       3.4641016151       3.0000000000
X        3.0000000000       3.4641016151       3.0000000000
X        4.0000000000       3.4641016151       3.0000000000
X        5.0000000000       3.4641016151       3.0000000000
X        6.0000000000       3.4641016151       3.0000000000
X        7.0000000000       3.4641016151       3.0000000000
X        8.0000000000       3.4641016151       3.0000000000
X        9.0000000000       3.4641016151       3.0000000000
X       10.0000000000       3.4641016151       3.0000000000
X       11.0000000000       3.4641016151       3.0000000000
X        2.5000000000       4.3301270189       3.0000000000
X        3.5000000000       4.3301270189       3.0000000000
X        4.5000000000       4.3301270189       3.0000000000
X        5.5000000000       4.3301270189       3.0000000000
X        6.5000000000       4.3301270189       3.0000000000
X        7.5000000000       4.3301270189       3.0000000000
X        8.5000000000       4.3301270189       3.0000000000
X        9.5000000000       4.3301270189       3.0000000000
X       10.5000000000       4.3301270189       3.0000000000
X       11.5000000000       4.3301270189       3.0000000000
X        3.0000000000       5.1961524227       3.0000000000
X        4.0000000000       5.1961524227       3.0000000000
X        5.0000000000       5.1961524227       3.0000000000
X        6.0000000000       5.1961524227       3.0000000000
X        7.0000000000       5.1961524227       3.0000000000
X        8.0000000000       5.1961524227       3.0000000000
X        9.0000000000       5.1961524227       3.0000000000
X       10.0000000000       5.1961524227       3.0000000000
X       11.0000000000       5.1961524227       3.0000000000
X       12.0000000000       5.1961524227       3.0000000000
X        3.5000000000       6.0621778265       3.0000000000
X        4.5000000000       6.0621778265       3.0000000000
X        5.5000000000       6.0621778265       3.0000000000
X        6.5000000000       6.0621778265       3.0000000000
X        7.5000000000       6.0621778265       3.0000000000
X        8.5000000000       6.0621778265       3.0000000000
X        9.5000000000       6.0621778265       3.0000000000
X       10.5000000000       6.0621778265       3.0000000000
X       11.5000000000       6.0621778265       3.0000000000
X       12.5000000000       6.0621778265       3.0000000000
X        4.0000000000       6.9282032303       3.0000000000
X        5.0000000000       6.9282032303       3.0000000000
X        6.0000000000       6.9282032303       3.0000000000
X        7.0000000000       6.9282032303       3.0000000000
X        8.0000000000       6.9282032303       3.0000000000
X        9.0000000000       6.9282032303       3.0000000000
X       10.0000000000       6.9282032303       3.0000000000
X       11.0000000000       6.9282032303       3.0000000000
X       12.0000000000       6.9282032303       3.0000000000
X       13.0000000000       6.9282032303       3.0000000000
X        4.5000000000       7.7942286341       3.0000000000
X        5.5000000000       7.7942286341       3.0000000000
X        6.5000000000       7.7942286341       3.0000000000
X        7.5000000000       7.7942286341       3.0000000000
X        8.5000000000       7.7942286341       3.0000000000
X        9.5000000000       7.7942286341       3.0000000000
X       10.5000000000       7.7942286341       3.0000000000
X       11.5000000000       7.7942286341       3.0000000000
X       12.5000000000       7.7942286341       3.0000000000
X       13.5000000000       7.7942286341       3.0000000000
X        0.0000000000       0.0000000000       4.0000000000
X        1.0000000000       0.0000000000       4.0000000000
X        2.0000000000       0.0000000000       4.0000000000
X        3.0000000000       0.0000000000       4.0000000000
X        4.0000000000       0.0000000000       4.0000000000
X        5.0000000000       0.0000000000       4.0000000000
X        6.0000000000       0.0000000000       4.0000000000
X        7.0000000000       0.0000000000       4.0000000000
X        8.0000000000       0.0000000000       4.0000000000
X        9.0000000000       0.0000000000       4.0000000000
X        0.5000000000       0.8660254038       4.0000000000
X        1.5000000000       0.8660254038       4.0000000000
X        2.5000000000       0.8660254038       4.0000000000
X        3.5000000000       0.8660254038       4.0000000000
X        4.5000000000       0.8660254038       4.0000000000
X        5.5000000000       0.8660254038       4.0000000000
X        6.5000000000       0.8660254038       4.0000000000
X        7.5000000000       0.8660254038       4.0000000000
X        8.5000000000       0.8660254038       4.0000000000
X        9.5000000000       0.8660254038       4.0000000000
X        1.0000000000       1.7320508076       4.0000000000
X        2.0000000000       1.7320508076       4.0000000000
X        3.0000000000       1.7320508076       4.0000000000
X        4.0000000000       1.7320508076       4.0000000000
X        5.0000000000       1.7320508076       4.0000000000
X        6.0000000000       1.7320508076       4.0000000000
X        7.0000000000       1.7320508076       4.0000000000
X        8.0000000000       1.7320508076       4.0000000000
X        9.0000000000       1.7320508076       4.0000000000
X       10.0000000000       1.7320508076       4.0000000000
X        1.5000000000       2.5980762114       4.0000000000
X        2.5000000000       2.5980762114       4.0000000000
X        3.5000000000       2.5980762114       4.0000000000
X        4.5000000000       2.5980762114       4.0000000000
X        5.5000000000       2.5980762114       4.0000000000
X        6.5000000000       2.5980762114       4.0000000000
X        7.5000000000       2.5980762114       4.0000000000
X        8.5000000000       2.5980762114       4.0000000000
X        9.5000000000       2.5980762114       4.0000000000
X       10.5000000000       2.5980762114       4.0000000000
X        2.0000000000       3.4641016151       4.0000000000
X        3.0000000000       3.4641016151       4.0000000000
X        4.0000000000       3.4641016151       4.0000000000
X        5.0000000000       3.4641016151       4.0000000000
X        6.0000000000       3.4641016151       4.0000000000
X        7.0000000000       3.4641016151       4.0000000000
X        8.0000000000       3.4641016151       4.0000000000
X        9.0000000000       3.4641016151       4.0000000000
X       10.0000000000       3.4641016151       4.0000000000
X       11.0000000000       3.4641016151       4.0000000000
X        2.5000000000       4.3301270189       4.0000000000
X        3.5000000000       4.3301270189       4.0000000000
X        4.5000000000       4.3301270189       4.0000000000
X        5.5000000000       4.3301270189       4.0000000000
X        6.5000000000       4.3301270189       4.0000000000
X        7.5000000000       4.3301270189       4.0000000000
X        8.5000000000       4.3301270189       4.0000000000
X        9.5000000000       4.3301270189       4.0000000000
X       10.5000000000       4.3301270189       4.0000000000
X       11.5000000000       4.3301270189       4.0000000000
X        3.0000000000       5.1961524227       4.0000000000
X        4.0000000000       5.1961524227       4.0000000000
X        5.0000000000       5.1961524227       4.0000000000
X        6.0000000000       5.1961524227       4.0000000000
X        7.0000000000       5.1961524227       4.0000000000
X        8.0000000000       5.1961524227       4.0000000000
X        9.0000000000       5.1961524227       4.0000000000
X       10.0000000000       5.1961524227       4.0000000000
X       11.0000000000       5.1961524227       4.0000000000
X       12.0000000000       5.1961524227       4.0000000000
X        3.5000000000       6.0621778265       4.0000000000
X        4.5000000000       6.0621778265       4.0000000000
X        5.5000000000       6.0621778265       4.0000000000
X        6.5000000000       6.0621778265       4.0000000000
X        7.5000000000       6.0621778265       4.0000000000
X        8.5000000000       6.0621778265       4.0000000000
X        9.5000000000       6.0621778265       4.0000000000
X       10.5000000000       6.0621778265       4.0000000000
X       11.5000000000       6.0621778265       4.0000000000
X       12.5000000000       6.0621778265       4.0000000000
X        4.0000000000       6.9282032303       4.0000000000
X        5.0000000000       6.9282032303       4.0000000000
X        6.0000000000       6.9282032303       4.0000000000
X        7.0000000000       6.9282032303       4.0000000000
X        8.0000000000       6.9282032303       4.0000000000
X        9.0000000000       6.9282032303       4.0000000000
X       10.0000000000       6.9282032303       4.0000000000
X       11.0000000000       6.9282032303       4.0000000000
X       12.0000000000       6.9282032303       4.0000000000
X       13.0000000000       6.9282032303       4.0000000000
X        4.5000000000       7.7942286341       4.0000000000
X        5.5000000000       7.7942286341       4.0000000000
X        6.5000000000       7.7942286341       4.0000000000
X        7.5000000000       7.7942286341       4.0000000000
X        8.5000000000       7.7942286341       4.0000000000
X        9.5000000000       7.7942286341       4.0000000000